
  **** **** ******  **  PROGRAM STARTED AT               2012-06-12 21:41:09.100
 ***** ** ***  *** **   PROGRAM STARTED ON                              nid00029
 **    ****   ******    PROGRAM STARTED BY                              root ;-)
 ***** **    ** ** **   PROGRAM PROCESS ID                                 19119
  **** **  *******  **  PROGRAM STARTED IN /scratch/weisshorn/rustamr/e298-1.304
                                           388

 CP2K| version string:                CP2K version 2.2.268 (Development Version)
 CP2K| is freely available from                          http://cp2k.berlios.de/
 CP2K| Program compiled at                         Sun May 27 15:14:38 CEST 2012
 CP2K| Program compiled on                                                 rosa5
 CP2K| Program compiled for                                    rosa-new-gfortran
 CP2K| Last CVS entry                xas_tp_scf.F/1.101/Wed Jun 29 13:43:33 2011
 CP2K| Input file name                                           bulk.090010.inp

 GLOBAL| Force Environment number                                              1
 GLOBAL| Basis set file name            /users/rustamr/dev/cp2k/tests/QS/BASIS_M
 GLOBAL| Geminal file name                                         BASIS_GEMINAL
 GLOBAL| Potential file name            /users/rustamr/dev/cp2k/tests/QS/GTH_POT
 GLOBAL| MM Potential file name                                     MM_POTENTIAL
 GLOBAL| Coordinate file name                                      __STD_INPUT__
 GLOBAL| Method name                                                        CP2K
 GLOBAL| Project name                                                       bulk
 GLOBAL| Preferred FFT library                                             FFTW3
 GLOBAL| Run type                                                         ENERGY
 GLOBAL| All-to-all communication in single precision                          F
 GLOBAL| FFTs using library dependent lengths                                  F
 GLOBAL| Global print level                                               MEDIUM
 GLOBAL| Total number of message passing processes                           128
 GLOBAL| Number of threads for this process                                    1
 GLOBAL| This output is from process                                           0

 MEMORY| system memory details [Kb]
 MEMORY|                        rank 0           min           max       average
 MEMORY| MemTotal             33082792      33082792      33082792      33082792
 MEMORY| MemFree              30723412      30717468      30726528      30723051
 MEMORY| Buffers                     0             0             0             0
 MEMORY| Cached                 109536        106196        109536        108160
 MEMORY| Slab                   192024        192024        192696        192466
 MEMORY| SReclaimable             4440          4440          4672          4547
 MEMORY| MemLikelyFree        30837388      30831444      30838248      30835758

 DBCSR| Multiplication driver                                                SMM
 DBCSR| Multiplication stack size                                           1000
 DBCSR| Use subcommunicators                                                   F
 DBCSR| Use MPI combined types                                                 F
 DBCSR| Use MPI memory allocation                                              T


 *** Fundamental physical constants (SI units) ***

 *** Literature: B. J. Mohr and B. N. Taylor,
 ***             CODATA recommended values of the fundamental physical
 ***             constants: 2006, Web Version 5.1
 ***             http://physics.nist.gov/constants

 Speed of light in vacuum [m/s]                             2.99792458000000E+08
 Magnetic constant or permeability of vacuum [N/A**2]       1.25663706143592E-06
 Electric constant or permittivity of vacuum [F/m]          8.85418781762039E-12
 Planck constant (h) [J*s]                                  6.62606896000000E-34
 Planck constant (h-bar) [J*s]                              1.05457162825177E-34
 Elementary charge [C]                                      1.60217648700000E-19
 Electron mass [kg]                                         9.10938215000000E-31
 Electron g factor [ ]                                     -2.00231930436220E+00
 Proton mass [kg]                                           1.67262163700000E-27
 Fine-structure constant                                    7.29735253760000E-03
 Rydberg constant [1/m]                                     1.09737315685270E+07
 Avogrado constant [1/mol]                                  6.02214179000000E+23
 Boltzmann constant [J/K]                                   1.38065040000000E-23
 Atomic mass unit [kg]                                      1.66053878200000E-27
 Bohr radius [m]                                            5.29177208590000E-11

 *** Conversion factors ***

 [u] -> [a.u.]                                              1.82288848426455E+03
 [Angstrom] -> [Bohr] = [a.u.]                              1.88972613288564E+00
 [a.u.] = [Bohr] -> [Angstrom]                              5.29177208590000E-01
 [a.u.] -> [s]                                              2.41888432650478E-17
 [a.u.] -> [fs]                                             2.41888432650478E-02
 [a.u.] -> [J]                                              4.35974393937059E-18
 [a.u.] -> [K]                                              3.15774647902944E+05
 [a.u.] -> [kJ/mol]                                         2.62549961709828E+03
 [a.u.] -> [kcal/mol]                                       6.27509468713739E+02
 [a.u.] -> [Pa]                                             2.94210107994716E+13
 [a.u.] -> [bar]                                            2.94210107994716E+08
 [a.u.] -> [atm]                                            2.90362800883016E+08
 [a.u.] -> [eV]                                             2.72113838565563E+01
 [a.u.] -> [Hz]                                             6.57968392072181E+15
 [a.u.] -> [1/cm] (wave numbers)                            2.19474631370540E+05
 [a.u./Bohr**2] -> [1/cm]                                   5.14048714338585E+03
 

 CELL| Volume [angstrom^3]:                                             3749.654
 CELL| Vector a [angstrom]:      15.536     0.000     0.000    |a| =      15.536
 CELL| Vector b [angstrom]:       0.000    15.536     0.000    |b| =      15.536
 CELL| Vector c [angstrom]:       0.000     0.000    15.536    |c| =      15.536
 CELL| Angle (b,c), alpha [degree]:                                       90.000
 CELL| Angle (a,c), beta  [degree]:                                       90.000
 CELL| Angle (a,b), gamma [degree]:                                       90.000

 CELL_REF| Volume [angstrom^3]:                                         3749.654
 CELL_REF| Vector a [angstrom    15.536     0.000     0.000    |a| =      15.536
 CELL_REF| Vector b [angstrom     0.000    15.536     0.000    |b| =      15.536
 CELL_REF| Vector c [angstrom     0.000     0.000    15.536    |c| =      15.536
 CELL_REF| Angle (b,c), alpha [degree]:                                   90.000
 CELL_REF| Angle (a,c), beta  [degree]:                                   90.000
 CELL_REF| Angle (a,b), gamma [degree]:                                   90.000

 CELL_TOP| Volume [angstrom^3]:                                         3749.654
 CELL_TOP| Vector a [angstrom    15.536     0.000     0.000    |a| =      15.536
 CELL_TOP| Vector b [angstrom     0.000    15.536     0.000    |b| =      15.536
 CELL_TOP| Vector c [angstrom     0.000     0.000    15.536    |c| =      15.536
 CELL_TOP| Angle (b,c), alpha [degree]:                                   90.000
 CELL_TOP| Angle (a,c), beta  [degree]:                                   90.000
 CELL_TOP| Angle (a,b), gamma [degree]:                                   90.000

 GENERATE|  Preliminary Number of Bonds generated:                           250
 GENERATE|  Achieved consistency in connectivity generation.
 GENERATE|  Number of Bonds generated:                                       250
 REORDER |  
 REORDER |  Reordering Molecules. The Reordering of molecules will override all
 REORDER |  information regarding molecule names and residue names.
 REORDER |  New ones will be provided on the basis of the connectivity!
 REORDER |  Number of unique molecules found:      1.
 REORDER |  

 GENERATE|  Preliminary Number of Bonds generated:                           250
 GENERATE|  Achieved consistency in connectivity generation.
 GENERATE|  Number of Bonds generated:                                       250
 GENERATE|  Preliminary Number of Bends generated:                           125
 GENERATE|  Number of Bends generated:                                       125
 GENERATE|  Number of UB generated:                                          125
 GENERATE|  Preliminary Number of Torsions generated:                          0
 GENERATE|  Number of Torsions generated:                                      0
 GENERATE|  Number of Impropers generated:                                     0
 GENERATE|  Number of 1-4 interactions generated:                              0

 *******************************************************************************
 *******************************************************************************
 **                                                                           **
 **     #####                         ##              ##                      **
 **    ##   ##            ##          ##              ##                      **
 **   ##     ##                       ##            ######                    **
 **   ##     ##  ##   ##  ##   #####  ##  ##   ####   ##    #####    #####    **
 **   ##     ##  ##   ##  ##  ##      ## ##   ##      ##   ##   ##  ##   ##   **
 **   ##  ## ##  ##   ##  ##  ##      ####     ###    ##   ######   ######    **
 **    ##  ###   ##   ##  ##  ##      ## ##      ##   ##   ##       ##        **
 **     #######   #####   ##   #####  ##  ##  ####    ##    #####   ##        **
 **           ##                                                    ##        **
 **                                                                           **
 **                                                ... make the atoms dance   **
 **                                                                           **
 **            Copyright (C) by CP2K Developers Group (2000 - 2011)           **
 **                                                                           **
 *******************************************************************************

 DFT| Spin restricted Kohn-Sham (RKS) calculation                            RKS
 DFT| Multiplicity                                                             1
 DFT| Number of spin states                                                    1
 DFT| Charge                                                                   0
 DFT| Self-interaction correction (SIC)                                       NO
 DFT| Cutoffs: density                                              1.000000E-10
 DFT|          gradient                                             1.000000E-10
 DFT|          tau                                                  1.000000E-10
 DFT|          cutoff_smoothing_range                               0.000000E+00
 DFT| XC density smoothing                                                  NONE
 DFT| XC derivatives                                                          PW
 FUNCTIONAL| ROUTINE=NEW
 FUNCTIONAL| BECKE88:
 FUNCTIONAL| A. Becke, Phys. Rev. A 38, 3098 (1988) {LDA version}
 FUNCTIONAL| LYP:
 FUNCTIONAL| C. Lee, W. Yang, R.G. Parr, Phys. Rev. B, 37, 785 (1988) {LDA versi
 FUNCTIONAL| on}

 QS| Method:                                                                 GPW
 QS| Density plane wave grid type                        NON-SPHERICAL FULLSPACE
 QS| Number of grid levels:                                                    5
 QS| Density cutoff [a.u.]:                                                500.0
 QS| Multi grid cutoff [a.u.]: 1) grid level                               500.0
 QS|                           2) grid level                               166.7
 QS|                           3) grid level                                55.6
 QS|                           4) grid level                                18.5
 QS|                           5) grid level                                 6.2
 QS| Grid level progression factor:                                          3.0
 QS| Relative density cutoff [a.u.]:                                        15.0
 QS| Consistent realspace mapping and integration 
 QS| Interaction thresholds: eps_pgf_orb:                                1.0E-05
 QS|                         eps_filter_matrix:                          0.0E+00
 QS|                         eps_core_charge:                            1.0E-12
 QS|                         eps_rho_gspace:                             1.0E-10
 QS|                         eps_rho_rspace:                             1.0E-10
 QS|                         eps_gvg_rspace:                             1.0E-05
 QS|                         eps_ppl:                                    1.0E-02
 QS|                         eps_ppnl:                                   1.0E-07


 ATOMIC KIND INFORMATION

  1. Atomic kind: O                                     Number of atoms:     125

     Orbital basis set information for                          TZV2P-MOLOPT-GTH

       Number of orbital shell sets:                                           1
       Number of orbital shells:                                               8
       Number of primitive Cartesian functions:                                7
       Number of Cartesian basis functions:                                   24
       Number of spherical basis functions:                                   22

       Normalised Cartesian orbitals:

                        Set   Shell   Orbital            Exponent    Coefficient

                          1       1    2s               12.015955      -0.284499
                                                         5.108150      -0.322498
                                                         2.048398       0.148191
                                                         0.832382       0.295475
                                                         0.352316       0.150829
                                                         0.142977       0.015788
                                                         0.046761      -0.000019

                          1       2    3s               12.015955       0.725622
                                                         5.108150       0.644384
                                                         2.048398      -0.157350
                                                         0.832382      -0.853528
                                                         0.352316       0.146068
                                                         0.142977       0.153978
                                                         0.046761       0.000658

                          1       3    4s               12.015955       1.228006
                                                         5.108150       1.271453
                                                         2.048398      -0.537390
                                                         0.832382      -1.759282
                                                         0.352316       1.533697
                                                         0.142977      -0.562509
                                                         0.046761       0.081954

                          1       4    3px              12.015955       1.192141
                                                         5.108150       1.354170
                                                         2.048398       0.897267
                                                         0.832382       0.408839
                                                         0.352316       0.116648
                                                         0.142977       0.022184
                                                         0.046761       0.000308
                          1       4    3py              12.015955       1.192141
                                                         5.108150       1.354170
                                                         2.048398       0.897267
                                                         0.832382       0.408839
                                                         0.352316       0.116648
                                                         0.142977       0.022184
                                                         0.046761       0.000308
                          1       4    3pz              12.015955       1.192141
                                                         5.108150       1.354170
                                                         2.048398       0.897267
                                                         0.832382       0.408839
                                                         0.352316       0.116648
                                                         0.142977       0.022184
                                                         0.046761       0.000308

                          1       5    4px              12.015955      -1.062381
                                                         5.108150      -1.285791
                                                         2.048398      -0.727000
                                                         0.832382      -0.522764
                                                         0.352316       0.182681
                                                         0.142977       0.087560
                                                         0.046761       0.000981
                          1       5    4py              12.015955      -1.062381
                                                         5.108150      -1.285791
                                                         2.048398      -0.727000
                                                         0.832382      -0.522764
                                                         0.352316       0.182681
                                                         0.142977       0.087560
                                                         0.046761       0.000981
                          1       5    4pz              12.015955      -1.062381
                                                         5.108150      -1.285791
                                                         2.048398      -0.727000
                                                         0.832382      -0.522764
                                                         0.352316       0.182681
                                                         0.142977       0.087560
                                                         0.046761       0.000981

                          1       6    5px              12.015955      -0.063722
                                                         5.108150       0.363638
                                                         2.048398       0.015152
                                                         0.832382      -0.083580
                                                         0.352316       0.692078
                                                         0.142977      -0.184312
                                                         0.046761       0.007664
                          1       6    5py              12.015955      -0.063722
                                                         5.108150       0.363638
                                                         2.048398       0.015152
                                                         0.832382      -0.083580
                                                         0.352316       0.692078
                                                         0.142977      -0.184312
                                                         0.046761       0.007664
                          1       6    5pz              12.015955      -0.063722
                                                         5.108150       0.363638
                                                         2.048398       0.015152
                                                         0.832382      -0.083580
                                                         0.352316       0.692078
                                                         0.142977      -0.184312
                                                         0.046761       0.007664

                          1       7    4dx2             12.015955       1.125955
                                                         5.108150       1.160468
                                                         2.048398       0.999335
                                                         0.832382       0.756334
                                                         0.352316       0.048604
                                                         0.142977       0.010378
                                                         0.046761      -0.000027
                          1       7    4dxy             12.015955       1.950212
                                                         5.108150       2.009990
                                                         2.048398       1.730899
                                                         0.832382       1.310009
                                                         0.352316       0.084185
                                                         0.142977       0.017974
                                                         0.046761      -0.000046
                          1       7    4dxz             12.015955       1.950212
                                                         5.108150       2.009990
                                                         2.048398       1.730899
                                                         0.832382       1.310009
                                                         0.352316       0.084185
                                                         0.142977       0.017974
                                                         0.046761      -0.000046
                          1       7    4dy2             12.015955       1.125955
                                                         5.108150       1.160468
                                                         2.048398       0.999335
                                                         0.832382       0.756334
                                                         0.352316       0.048604
                                                         0.142977       0.010378
                                                         0.046761      -0.000027
                          1       7    4dyz             12.015955       1.950212
                                                         5.108150       2.009990
                                                         2.048398       1.730899
                                                         0.832382       1.310009
                                                         0.352316       0.084185
                                                         0.142977       0.017974
                                                         0.046761      -0.000046
                          1       7    4dz2             12.015955       1.125955
                                                         5.108150       1.160468
                                                         2.048398       0.999335
                                                         0.832382       0.756334
                                                         0.352316       0.048604
                                                         0.142977       0.010378
                                                         0.046761      -0.000027

                          1       8    5dx2             12.015955      -2.135425
                                                         5.108150       0.581743
                                                         2.048398      -1.302492
                                                         0.832382       0.098118
                                                         0.352316       0.292085
                                                         0.142977      -0.022029
                                                         0.046761      -0.003795
                          1       8    5dxy             12.015955      -3.698665
                                                         5.108150       1.007608
                                                         2.048398      -2.255983
                                                         0.832382       0.169945
                                                         0.352316       0.505906
                                                         0.142977      -0.038155
                                                         0.046761      -0.006574
                          1       8    5dxz             12.015955      -3.698665
                                                         5.108150       1.007608
                                                         2.048398      -2.255983
                                                         0.832382       0.169945
                                                         0.352316       0.505906
                                                         0.142977      -0.038155
                                                         0.046761      -0.006574
                          1       8    5dy2             12.015955      -2.135425
                                                         5.108150       0.581743
                                                         2.048398      -1.302492
                                                         0.832382       0.098118
                                                         0.352316       0.292085
                                                         0.142977      -0.022029
                                                         0.046761      -0.003795
                          1       8    5dyz             12.015955      -3.698665
                                                         5.108150       1.007608
                                                         2.048398      -2.255983
                                                         0.832382       0.169945
                                                         0.352316       0.505906
                                                         0.142977      -0.038155
                                                         0.046761      -0.006574
                          1       8    5dz2             12.015955      -2.135425
                                                         5.108150       0.581743
                                                         2.048398      -1.302492
                                                         0.832382       0.098118
                                                         0.352316       0.292085
                                                         0.142977      -0.022029
                                                         0.046761      -0.003795

     Potential information for                                       GTH-BLYP-q6

       Description:                       Goedecker-Teter-Hutter pseudopotential
                                           Goedecker et al., PRB 54, 1703 (1996)
                                          Hartwigsen et al., PRB 58, 3641 (1998)
                                                      Krack, TCA 114, 145 (2005)

       Gaussian exponent of the core charge distribution:               8.438331
       Electronic configuration (s p d ...):                               2   4

       Parameters of the local part of the GTH pseudopotential:

                          rloc        C1          C2          C3          C4
                        0.243420  -16.991892    2.566142

       Parameters of the non-local part of the GTH pseudopotential:

                   l      r(l)      h(i,j,l)

                   0    0.220831   18.388851
                   1    0.217201

  2. Atomic kind: H                                     Number of atoms:     250

     Orbital basis set information for                          TZV2P-MOLOPT-GTH

       Number of orbital shell sets:                                           1
       Number of orbital shells:                                               5
       Number of primitive Cartesian functions:                                7
       Number of Cartesian basis functions:                                    9
       Number of spherical basis functions:                                    9

       Normalised Cartesian orbitals:

                        Set   Shell   Orbital            Exponent    Coefficient

                          1       1    2s               11.478000       0.129129
                                                         3.700759       0.177012
                                                         1.446884       0.141285
                                                         0.716815       0.245670
                                                         0.247919       0.094768
                                                         0.066918       0.004062
                                                         0.021708      -0.000053

                          1       2    3s               11.478000      -0.079256
                                                         3.700759      -0.152992
                                                         1.446884       0.015066
                                                         0.716815      -0.331234
                                                         0.247919       0.210690
                                                         0.066918       0.058630
                                                         0.021708      -0.003429

                          1       3    4s               11.478000      -0.246880
                                                         3.700759       0.023016
                                                         1.446884      -1.109374
                                                         0.716815       1.524652
                                                         0.247919      -0.227968
                                                         0.066918      -0.037343
                                                         0.021708       0.005696

                          1       4    3px              11.478000       0.325290
                                                         3.700759       0.187466
                                                         1.446884       0.443300
                                                         0.716815       0.267738
                                                         0.247919       0.088285
                                                         0.066918       0.019092
                                                         0.021708       0.000629
                          1       4    3py              11.478000       0.325290
                                                         3.700759       0.187466
                                                         1.446884       0.443300
                                                         0.716815       0.267738
                                                         0.247919       0.088285
                                                         0.066918       0.019092
                                                         0.021708       0.000629
                          1       4    3pz              11.478000       0.325290
                                                         3.700759       0.187466
                                                         1.446884       0.443300
                                                         0.716815       0.267738
                                                         0.247919       0.088285
                                                         0.066918       0.019092
                                                         0.021708       0.000629

                          1       5    4px              11.478000      -1.727188
                                                         3.700759      -0.598393
                                                         1.446884      -3.813128
                                                         0.716815       1.901151
                                                         0.247919      -0.262425
                                                         0.066918       0.006339
                                                         0.021708       0.007345
                          1       5    4py              11.478000      -1.727188
                                                         3.700759      -0.598393
                                                         1.446884      -3.813128
                                                         0.716815       1.901151
                                                         0.247919      -0.262425
                                                         0.066918       0.006339
                                                         0.021708       0.007345
                          1       5    4pz              11.478000      -1.727188
                                                         3.700759      -0.598393
                                                         1.446884      -3.813128
                                                         0.716815       1.901151
                                                         0.247919      -0.262425
                                                         0.066918       0.006339
                                                         0.021708       0.007345

     Potential information for                                       GTH-BLYP-q1

       Description:                       Goedecker-Teter-Hutter pseudopotential
                                           Goedecker et al., PRB 54, 1703 (1996)
                                          Hartwigsen et al., PRB 58, 3641 (1998)
                                                      Krack, TCA 114, 145 (2005)

       Gaussian exponent of the core charge distribution:              12.500000
       Electronic configuration (s p d ...):                                   1

       Parameters of the local part of the GTH pseudopotential:

                          rloc        C1          C2          C3          C4
                        0.200000   -4.195961    0.730498


 MOLECULE KIND INFORMATION

     1. Molecule kind: H2O                       Number of atoms:              3
                     Atom         Atomic kind name
                        1                        O
                        2                        H
                        3                        H

        The name was automatically generated: F
        Number of molecules:    125
        Molecule list:                1         2         3         4         5
                                      6         7         8         9        10
                                     11        12        13        14        15
                                     16        17        18        19        20
                                     21        22        23        24        25
                                     26        27        28        29        30
                                     31        32        33        34        35
                                     36        37        38        39        40
                                     41        42        43        44        45
                                     46        47        48        49        50
                                     51        52        53        54        55
                                     56        57        58        59        60
                                     61        62        63        64        65
                                     66        67        68        69        70
                                     71        72        73        74        75
                                     76        77        78        79        80
                                     81        82        83        84        85
                                     86        87        88        89        90
                                     91        92        93        94        95
                                     96        97        98        99       100
                                    101       102       103       104       105
                                    106       107       108       109       110
                                    111       112       113       114       115
                                    116       117       118       119       120
                                    121       122       123       124       125
        Number of bonds:            2
        Number of bends:            1
        Number of Urey-Bradley:     1


 MOLECULE KIND SET INFORMATION               Total Number of bonds:          250
                                             Total Number of bends:          125
                                             Total Number of Urey-Bradley:   125
                                             Total Number of torsions:         0
                                             Total Number of improper:         0
                                              Total Number of opbends:         0


 TOTAL NUMBERS AND MAXIMUM NUMBERS

  Total number of            - Atomic kinds:                                   2
                             - Atoms:                                        375
                             - Shell sets:                                   375
                             - Shells:                                      2250
                             - Primitive Cartesian functions:               2625
                             - Cartesian basis functions:                   5250
                             - Spherical basis functions:                   5000

  Maximum angular momentum of- Orbital basis functions:                        2
                             - Local part of the GTH pseudopotential:          2
                             - Non-local part of the GTH pseudopotential:      0


 MODULE QUICKSTEP:  ATOMIC COORDINATES IN angstrom

  Atom  Kind  Element       X           Y           Z          Z(eff)       Mass

       1     1 O    8    2.135274    1.322902    1.429721      6.00      15.9994
       2     2 H    1    1.544042    1.895431    1.961450      1.00       1.0079
       3     2 H    1    1.561153    1.111058    0.621961      1.00       1.0079
       4     1 O    8    7.845927    2.706577   14.994971      6.00      15.9994
       5     2 H    1    8.440934    1.966317   14.796656      1.00       1.0079
       6     2 H    1    8.502287    3.382085   14.800464      1.00       1.0079
       7     1 O    8    3.123420    6.048694   10.687174      6.00      15.9994
       8     2 H    1    3.674656    6.635489   10.127168      1.00       1.0079
       9     2 H    1    3.741849    5.512453   11.247110      1.00       1.0079
      10     1 O    8    4.526372   15.210649   13.971444      6.00      15.9994
      11     2 H    1    4.616788   16.195099   13.941591      1.00       1.0079
      12     2 H    1    3.587646   15.143032   14.361127      1.00       1.0079
      13     1 O    8    7.904376    9.274562    4.973417      6.00      15.9994
      14     2 H    1    8.911264    9.416985    4.896192      1.00       1.0079
      15     2 H    1    7.449667   10.159931    4.950279      1.00       1.0079
      16     1 O    8    1.812567    4.773677    8.037739      6.00      15.9994
      17     2 H    1    0.966620    4.699053    7.647425      1.00       1.0079
      18     2 H    1    1.841875    5.678314    8.453014      1.00       1.0079
      19     1 O    8    4.384679    6.371867    6.910320      6.00      15.9994
      20     2 H    1    4.554940    5.316912    6.850823      1.00       1.0079
      21     2 H    1    4.979945    6.900248    6.272051      1.00       1.0079
      22     1 O    8    6.126539   10.390454    2.958935      6.00      15.9994
      23     2 H    1    5.508332   11.176917    3.115018      1.00       1.0079
      24     2 H    1    5.899985    9.883227    3.778508      1.00       1.0079
      25     1 O    8    5.588295    2.828349   13.506148      6.00      15.9994
      26     2 H    1    4.817092    3.141394   14.061979      1.00       1.0079
      27     2 H    1    6.344236    2.761943   14.071095      1.00       1.0079
      28     1 O    8   13.900173    3.417866    8.489912      6.00      15.9994
      29     2 H    1   13.095495    2.932296    8.790874      1.00       1.0079
      30     2 H    1   14.463540    3.710146    9.236481      1.00       1.0079
      31     1 O    8   14.395023   14.789517    4.113212      6.00      15.9994
      32     2 H    1   13.477872   14.649112    4.396292      1.00       1.0079
      33     2 H    1   14.220553   15.215078    3.215471      1.00       1.0079
      34     1 O    8    7.567455   12.845777   14.909927      6.00      15.9994
      35     2 H    1    8.005595   12.244421   14.235110      1.00       1.0079
      36     2 H    1    6.569493   12.769075   14.745923      1.00       1.0079
      37     1 O    8    6.166184    4.625654    9.399185      6.00      15.9994
      38     2 H    1    5.321281    4.148110    9.019248      1.00       1.0079
      39     2 H    1    5.980655    5.596833    9.364961      1.00       1.0079
      40     1 O    8   13.192141   13.551628    0.246959      6.00      15.9994
      41     2 H    1   13.516769   14.360238    0.776478      1.00       1.0079
      42     2 H    1   12.926954   12.848692    0.878214      1.00       1.0079
      43     1 O    8   10.131861    5.713788    9.173992      6.00      15.9994
      44     2 H    1   10.789582    5.857008    8.472203      1.00       1.0079
      45     2 H    1    9.602957    4.920371    8.871853      1.00       1.0079
      46     1 O    8    4.361869   12.496956    3.028853      6.00      15.9994
      47     2 H    1    3.905043   12.197010    3.830111      1.00       1.0079
      48     2 H    1    3.793242   12.002204    2.427453      1.00       1.0079
      49     1 O    8    8.439890    7.360295    7.442204      6.00      15.9994
      50     2 H    1    8.728846    6.687851    7.998090      1.00       1.0079
      51     2 H    1    9.056499    7.367149    6.706293      1.00       1.0079
      52     1 O    8   10.902080   11.730889    8.660999      6.00      15.9994
      53     2 H    1    9.949011   11.339700    8.829259      1.00       1.0079
      54     2 H    1   11.039575   12.259782    9.416353      1.00       1.0079
      55     1 O    8    0.460877    5.797728   13.707058      6.00      15.9994
      56     2 H    1    0.454528    5.574787   14.701283      1.00       1.0079
      57     2 H    1   -0.281787    5.259939   13.300095      1.00       1.0079
      58     1 O    8   13.195544    3.883991    0.753328      6.00      15.9994
      59     2 H    1   13.026952    3.559265    1.725266      1.00       1.0079
      60     2 H    1   14.148608    4.000137    0.679696      1.00       1.0079
      61     1 O    8   10.617596   11.634607   12.907883      6.00      15.9994
      62     2 H    1   11.285356   10.985005   13.269695      1.00       1.0079
      63     2 H    1   11.084068   12.029216   12.159487      1.00       1.0079
      64     1 O    8    3.143849    0.815214    9.500103      6.00      15.9994
      65     2 H    1    3.481883    1.720733    9.465315      1.00       1.0079
      66     2 H    1    3.830300    0.271702    9.010912      1.00       1.0079
      67     1 O    8    5.366382   10.287987   13.481017      6.00      15.9994
      68     2 H    1    6.343756   10.357493   13.454354      1.00       1.0079
      69     2 H    1    5.226548    9.403417   13.824541      1.00       1.0079
      70     1 O    8    0.059226    3.765536    6.016864      6.00      15.9994
      71     2 H    1    0.358457    3.190969    5.314754      1.00       1.0079
      72     2 H    1    0.027247    3.191306    6.793803      1.00       1.0079
      73     1 O    8   15.104595   11.788490   10.869269      6.00      15.9994
      74     2 H    1   14.991016   10.809708   11.043653      1.00       1.0079
      75     2 H    1   15.951597   11.920945   11.371567      1.00       1.0079
      76     1 O    8    7.906017    2.461209    5.236069      6.00      15.9994
      77     2 H    1    8.558694    2.775929    4.635969      1.00       1.0079
      78     2 H    1    7.059388    2.973720    5.213812      1.00       1.0079
      79     1 O    8    4.666004   14.553293   11.500511      6.00      15.9994
      80     2 H    1    4.684676   14.839513   12.436193      1.00       1.0079
      81     2 H    1    4.129269   15.319876   11.066591      1.00       1.0079
      82     1 O    8    2.313363   13.280825    9.351339      6.00      15.9994
      83     2 H    1    3.123869   13.700320    9.033626      1.00       1.0079
      84     2 H    1    1.785293   12.995724    8.525698      1.00       1.0079
      85     1 O    8   11.397183    6.047857    0.417989      6.00      15.9994
      86     2 H    1   11.991281    5.254712    0.541720      1.00       1.0079
      87     2 H    1   11.834577    6.603953   -0.260886      1.00       1.0079
      88     1 O    8    3.060536   11.244947    1.176612      6.00      15.9994
      89     2 H    1    3.165118   10.227388    1.058653      1.00       1.0079
      90     2 H    1    3.648128   11.559391    0.460396      1.00       1.0079
      91     1 O    8    5.136230    5.273211   12.361851      6.00      15.9994
      92     2 H    1    5.413752    4.326247   12.403126      1.00       1.0079
      93     2 H    1    5.930232    5.803417   12.002466      1.00       1.0079
      94     1 O    8    8.454802    3.775437    7.741003      6.00      15.9994
      95     2 H    1    8.244892    3.851998    6.795060      1.00       1.0079
      96     2 H    1    7.658228    4.008072    8.239086      1.00       1.0079
      97     1 O    8    2.980291    4.049362    3.908120      6.00      15.9994
      98     2 H    1    2.706333    4.879091    4.254942      1.00       1.0079
      99     2 H    1    3.092761    4.226979    2.966493      1.00       1.0079
     100     1 O    8    8.873051    9.577821    8.824258      6.00      15.9994
     101     2 H    1    7.968025    9.909758    9.088411      1.00       1.0079
     102     2 H    1    8.697957    8.883571    8.159534      1.00       1.0079
     103     1 O    8    9.593083    4.658704   14.437323      6.00      15.9994
     104     2 H    1   10.147314    5.272345   14.981459      1.00       1.0079
     105     2 H    1   10.273793    3.946055   14.259256      1.00       1.0079
     106     1 O    8    1.592632   10.065291    9.679997      6.00      15.9994
     107     2 H    1    0.885284   10.575280   10.158380      1.00       1.0079
     108     2 H    1    2.394732   10.467630   10.028234      1.00       1.0079
     109     1 O    8    8.157917   15.323910   13.638579      6.00      15.9994
     110     2 H    1    9.016156   14.937478   13.996294      1.00       1.0079
     111     2 H    1    7.486331   14.836441   14.111526      1.00       1.0079
     112     1 O    8    9.371854   14.285076    5.070145      6.00      15.9994
     113     2 H    1    8.581474   14.776384    5.484852      1.00       1.0079
     114     2 H    1    8.981548   13.930842    4.207104      1.00       1.0079
     115     1 O    8   14.247099    7.554589   10.348956      6.00      15.9994
     116     2 H    1   13.608610    6.955736   10.740962      1.00       1.0079
     117     2 H    1   13.721555    8.426603   10.048174      1.00       1.0079
     118     1 O    8    4.295901   11.050271    5.476243      6.00      15.9994
     119     2 H    1    3.460899   10.880144    5.993599      1.00       1.0079
     120     2 H    1    4.792543   11.605329    6.092876      1.00       1.0079
     121     1 O    8    0.964216    2.366980    3.857916      6.00      15.9994
     122     2 H    1    1.770520    2.989341    3.902206      1.00       1.0079
     123     2 H    1    1.420132    1.527857    3.877979      1.00       1.0079
     124     1 O    8   11.743126   12.237349    4.256513      6.00      15.9994
     125     2 H    1   12.272893   12.119607    3.405999      1.00       1.0079
     126     2 H    1   12.145844   13.080708    4.685489      1.00       1.0079
     127     1 O    8    9.708063    1.458376    8.640806      6.00      15.9994
     128     2 H    1    9.184699    2.106376    8.070670      1.00       1.0079
     129     2 H    1    8.981262    0.883573    8.920763      1.00       1.0079
     130     1 O    8    2.883496    5.081111    1.521379      6.00      15.9994
     131     2 H    1    3.103796    4.622361    0.624835      1.00       1.0079
     132     2 H    1    3.162483    6.019352    1.608605      1.00       1.0079
     133     1 O    8   14.436411   14.345263   10.001462      6.00      15.9994
     134     2 H    1   14.926491   13.532794   10.319720      1.00       1.0079
     135     2 H    1   15.110817   15.086427    9.879678      1.00       1.0079
     136     1 O    8   10.187250    7.871466   10.622288      6.00      15.9994
     137     2 H    1   10.264289    7.028900   10.060992      1.00       1.0079
     138     2 H    1    9.442364    8.440432   10.234304      1.00       1.0079
     139     1 O    8    0.163288   12.438381   15.405997      6.00      15.9994
     140     2 H    1   -0.055076   11.480462   15.457506      1.00       1.0079
     141     2 H    1   -0.554059   12.933942   15.855509      1.00       1.0079
     142     1 O    8   12.754195    9.164697    0.867539      6.00      15.9994
     143     2 H    1   11.784718    9.145752    1.128502      1.00       1.0079
     144     2 H    1   12.971779    9.467839   -0.044846      1.00       1.0079
     145     1 O    8   13.252309    2.798289    3.319581      6.00      15.9994
     146     2 H    1   14.138886    2.528951    3.621335      1.00       1.0079
     147     2 H    1   12.938022    3.385411    4.080396      1.00       1.0079
     148     1 O    8    8.733128   14.202119   11.329525      6.00      15.9994
     149     2 H    1    8.597701   14.722880   12.130784      1.00       1.0079
     150     2 H    1    8.050804   13.503829   11.404569      1.00       1.0079
     151     1 O    8   13.351088   11.304998    2.277912      6.00      15.9994
     152     2 H    1   14.255852   11.220915    2.584752      1.00       1.0079
     153     2 H    1   13.224841   10.625553    1.591727      1.00       1.0079
     154     1 O    8    3.198199    8.714898    0.837403      6.00      15.9994
     155     2 H    1    3.577065    8.418439    1.718617      1.00       1.0079
     156     2 H    1    3.829081    8.432217    0.123525      1.00       1.0079
     157     1 O    8    0.977040    7.372336    8.873720      6.00      15.9994
     158     2 H    1    0.163268    7.060526    9.362609      1.00       1.0079
     159     2 H    1    1.379347    8.132419    9.349321      1.00       1.0079
     160     1 O    8    8.212193   11.867065    1.811515      6.00      15.9994
     161     2 H    1    7.434470   11.309757    2.067389      1.00       1.0079
     162     2 H    1    8.105465   12.136899    0.847567      1.00       1.0079
     163     1 O    8    9.900720    5.665094    4.833174      6.00      15.9994
     164     2 H    1    9.727231    6.304191    4.215167      1.00       1.0079
     165     2 H    1    9.918729    4.792712    4.332943      1.00       1.0079
     166     1 O    8    0.661185    9.285416    0.013881      6.00      15.9994
     167     2 H    1    0.144451    8.906373    0.808923      1.00       1.0079
     168     2 H    1    1.586512    9.091483    0.352066      1.00       1.0079
     169     1 O    8   10.548659   14.080171   14.334040      6.00      15.9994
     170     2 H    1   10.680860   13.184760   13.917925      1.00       1.0079
     171     2 H    1   11.314285   14.293438   14.900247      1.00       1.0079
     172     1 O    8    7.580447   12.000634    5.656036      6.00      15.9994
     173     2 H    1    8.283928   12.655267    5.697939      1.00       1.0079
     174     2 H    1    7.118246   12.345810    4.793732      1.00       1.0079
     175     1 O    8   13.046447    8.494564    6.497683      6.00      15.9994
     176     2 H    1   12.721173    7.557103    6.723434      1.00       1.0079
     177     2 H    1   12.620787    9.056381    7.175924      1.00       1.0079
     178     1 O    8    0.715195   12.648177    4.570717      6.00      15.9994
     179     2 H    1   -0.147895   13.066745    4.513514      1.00       1.0079
     180     2 H    1    0.761237   12.397305    5.522095      1.00       1.0079
     181     1 O    8   11.853880    6.073177    7.098066      6.00      15.9994
     182     2 H    1   12.375362    5.254313    6.823937      1.00       1.0079
     183     2 H    1   11.073680    6.145995    6.380483      1.00       1.0079
     184     1 O    8    2.349300   10.979807   13.883774      6.00      15.9994
     185     2 H    1    1.981431   11.413425   14.685491      1.00       1.0079
     186     2 H    1    1.821329   10.202400   13.630252      1.00       1.0079
     187     1 O    8    7.331610    4.252326    1.826470      6.00      15.9994
     188     2 H    1    7.784786    3.932890    0.997963      1.00       1.0079
     189     2 H    1    7.044155    5.174608    1.624798      1.00       1.0079
     190     1 O    8    8.160462    7.484530   14.159321      6.00      15.9994
     191     2 H    1    7.556352    7.402553   14.912670      1.00       1.0079
     192     2 H    1    8.323732    6.599263   13.788423      1.00       1.0079
     193     1 O    8   12.642636    5.508190   11.224996      6.00      15.9994
     194     2 H    1   13.084491    4.746568   11.665640      1.00       1.0079
     195     2 H    1   11.872311    5.180434   10.695093      1.00       1.0079
     196     1 O    8    0.368761    1.516802   14.708167      6.00      15.9994
     197     2 H    1    0.638415    2.257771   14.130292      1.00       1.0079
     198     2 H    1    0.539719    0.667331   14.233748      1.00       1.0079
     199     1 O    8    9.552021    3.327095    3.356948      6.00      15.9994
     200     2 H    1    8.686847    3.637574    2.930771      1.00       1.0079
     201     2 H    1    9.653979    2.413500    3.021329      1.00       1.0079
     202     1 O    8    0.491591    3.379941   10.273266      6.00      15.9994
     203     2 H    1    0.991681    3.960619    9.646836      1.00       1.0079
     204     2 H    1    0.297322    2.540260    9.822109      1.00       1.0079
     205     1 O    8    0.205503    5.419566    0.724896      6.00      15.9994
     206     2 H    1   -0.222613    6.168577    1.109646      1.00       1.0079
     207     2 H    1    1.107227    5.267338    1.136361      1.00       1.0079
     208     1 O    8   12.928064    9.749833   13.752241      6.00      15.9994
     209     2 H    1   13.687227   10.126274   13.232737      1.00       1.0079
     210     2 H    1   12.846106    8.816036   13.467458      1.00       1.0079
     211     1 O    8    0.281108    8.023978    6.379265      6.00      15.9994
     212     2 H    1    0.495077    7.772146    7.351824      1.00       1.0079
     213     2 H    1   -0.687966    7.972711    6.283436      1.00       1.0079
     214     1 O    8   12.926366    3.837493    5.682020      6.00      15.9994
     215     2 H    1   12.579342    2.982338    6.045592      1.00       1.0079
     216     2 H    1   13.945173    3.810290    5.650202      1.00       1.0079
     217     1 O    8   12.760158    1.301398   12.555300      6.00      15.9994
     218     2 H    1   12.522483    1.265703   11.582774      1.00       1.0079
     219     2 H    1   12.885983    0.340212   12.755203      1.00       1.0079
     220     1 O    8    3.965846    7.455919    3.109119      6.00      15.9994
     221     2 H    1    4.679555    7.809629    3.703816      1.00       1.0079
     222     2 H    1    3.175212    7.291586    3.779518      1.00       1.0079
     223     1 O    8   15.374340    9.297338   11.929051      6.00      15.9994
     224     2 H    1   16.045878    8.765869   12.408487      1.00       1.0079
     225     2 H    1   14.991597    8.528238   11.464382      1.00       1.0079
     226     1 O    8    2.910675    0.065124    4.033430      6.00      15.9994
     227     2 H    1    2.530168   -0.778610    4.320642      1.00       1.0079
     228     2 H    1    3.328869   -0.131040    3.150633      1.00       1.0079
     229     1 O    8    9.496514    7.099639    2.538565      6.00      15.9994
     230     2 H    1   10.164900    6.424608    2.406026      1.00       1.0079
     231     2 H    1    9.731032    7.941715    2.097099      1.00       1.0079
     232     1 O    8    5.670639    3.891531    4.160132      6.00      15.9994
     233     2 H    1    5.932942    4.033405    3.198365      1.00       1.0079
     234     2 H    1    4.704315    3.908803    4.085472      1.00       1.0079
     235     1 O    8    0.020789    9.906726    3.584698      6.00      15.9994
     236     2 H    1    0.635480   10.676089    3.725493      1.00       1.0079
     237     2 H    1    0.085952    9.310913    4.410846      1.00       1.0079
     238     1 O    8    7.255168    0.126649    9.570360      6.00      15.9994
     239     2 H    1    7.795774   -0.366548   10.245411      1.00       1.0079
     240     2 H    1    6.806518    0.925369    9.994057      1.00       1.0079
     241     1 O    8    1.972451    3.574602   13.218383      6.00      15.9994
     242     2 H    1    2.240303    3.468863   12.281094      1.00       1.0079
     243     2 H    1    1.546521    4.452804   13.303471      1.00       1.0079
     244     1 O    8   13.990944    0.388854    1.371404      6.00      15.9994
     245     2 H    1   13.662793    1.218735    1.764151      1.00       1.0079
     246     2 H    1   14.757995    0.591289    0.829297      1.00       1.0079
     247     1 O    8    6.996389    7.130371   11.519231      6.00      15.9994
     248     2 H    1    6.328364    7.813702   11.372419      1.00       1.0079
     249     2 H    1    7.242556    7.212992   12.462207      1.00       1.0079
     250     1 O    8   12.347557    9.453363    9.540689      6.00      15.9994
     251     2 H    1   12.158896   10.358594    9.315888      1.00       1.0079
     252     2 H    1   11.536251    9.045844    9.837097      1.00       1.0079
     253     1 O    8   11.289408    2.553770   14.812645      6.00      15.9994
     254     2 H    1   11.762366    1.880996   14.235801      1.00       1.0079
     255     2 H    1   11.968558    3.053445   15.250299      1.00       1.0079
     256     1 O    8   12.302493    7.074716   13.291454      6.00      15.9994
     257     2 H    1   11.374173    7.266325   13.150888      1.00       1.0079
     258     2 H    1   12.584428    6.411503   12.582980      1.00       1.0079
     259     1 O    8   10.251327    9.716619    1.838459      6.00      15.9994
     260     2 H    1   10.257677    9.728585    2.805594      1.00       1.0079
     261     2 H    1    9.375866   10.184924    1.683828      1.00       1.0079
     262     1 O    8    8.237960   10.253733   13.685035      6.00      15.9994
     263     2 H    1    9.070844   10.668706   13.367226      1.00       1.0079
     264     2 H    1    8.422171    9.260193   13.798740      1.00       1.0079
     265     1 O    8    6.974618   13.544814    3.534946      6.00      15.9994
     266     2 H    1    7.389217   13.064882    2.795563      1.00       1.0079
     267     2 H    1    6.012793   13.574212    3.286979      1.00       1.0079
     268     1 O    8    1.951738    9.927818    6.856355      6.00      15.9994
     269     2 H    1    1.302055    9.206740    6.768211      1.00       1.0079
     270     2 H    1    2.197577    9.947268    7.796956      1.00       1.0079
     271     1 O    8    5.946894    2.099952   10.814871      6.00      15.9994
     272     2 H    1    5.780390    2.215177   11.793860      1.00       1.0079
     273     2 H    1    6.121128    3.050316   10.408512      1.00       1.0079
     274     1 O    8    5.563737   12.014248    7.564994      6.00      15.9994
     275     2 H    1    5.274080   12.840062    7.925325      1.00       1.0079
     276     2 H    1    6.436943   12.035585    7.072446      1.00       1.0079
     277     1 O    8    1.984682    7.895769   12.944022      6.00      15.9994
     278     2 H    1    2.352416    7.463299   12.078241      1.00       1.0079
     279     2 H    1    1.302653    7.198516   13.160722      1.00       1.0079
     280     1 O    8    8.043183   15.394806    0.957536      6.00      15.9994
     281     2 H    1    8.446904   15.088226    0.164412      1.00       1.0079
     282     2 H    1    8.806592   15.842095    1.488961      1.00       1.0079
     283     1 O    8    5.473272    8.467931    5.513306      6.00      15.9994
     284     2 H    1    5.075913    9.326633    5.741790      1.00       1.0079
     285     2 H    1    6.404627    8.619381    5.399207      1.00       1.0079
     286     1 O    8   14.124943    3.811596   12.542611      6.00      15.9994
     287     2 H    1   13.790175    2.864045   12.625882      1.00       1.0079
     288     2 H    1   14.784488    3.674456   11.885479      1.00       1.0079
     289     1 O    8   10.192894    0.845534    2.249802      6.00      15.9994
     290     2 H    1   10.819414    1.032589    1.481300      1.00       1.0079
     291     2 H    1   10.278383   -0.108299    2.408731      1.00       1.0079
     292     1 O    8    4.249350    7.896981    9.084581      6.00      15.9994
     293     2 H    1    4.000799    7.478849    8.223543      1.00       1.0079
     294     2 H    1    4.993311    8.496312    9.128232      1.00       1.0079
     295     1 O    8    2.167344    6.799566    4.878610      6.00      15.9994
     296     2 H    1    1.456275    7.325578    5.318637      1.00       1.0079
     297     2 H    1    2.752293    6.341297    5.607338      1.00       1.0079
     298     1 O    8    4.772376   14.466650    8.295543      6.00      15.9994
     299     2 H    1    4.480653   14.830811    7.415708      1.00       1.0079
     300     2 H    1    5.708755   14.758495    8.391062      1.00       1.0079
     301     1 O    8   14.746654    0.951931    6.472353      6.00      15.9994
     302     2 H    1   13.845985    1.313399    6.655178      1.00       1.0079
     303     2 H    1   14.695374    0.522421    5.582360      1.00       1.0079
     304     1 O    8    5.968297   10.345286    9.639510      6.00      15.9994
     305     2 H    1    5.172093   10.664730   10.171223      1.00       1.0079
     306     2 H    1    5.940204   11.099574    9.011235      1.00       1.0079
     307     1 O    8   13.394660   14.238615   12.753977      6.00      15.9994
     308     2 H    1   13.295617   13.819290   13.596623      1.00       1.0079
     309     2 H    1   14.250202   13.957743   12.344062      1.00       1.0079
     310     1 O    8    4.614643    1.627200    5.784252      6.00      15.9994
     311     2 H    1    3.890585    1.175166    5.236434      1.00       1.0079
     312     2 H    1    5.406645    0.964897    5.711282      1.00       1.0079
     313     1 O    8    6.914506    0.019753    5.693224      6.00      15.9994
     314     2 H    1    7.372596    0.947987    5.605920      1.00       1.0079
     315     2 H    1    6.651574   -0.118441    4.754338      1.00       1.0079
     316     1 O    8   12.323769    1.525430    9.970159      6.00      15.9994
     317     2 H    1   12.850987    0.931737    9.377477      1.00       1.0079
     318     2 H    1   11.392580    1.546946    9.649469      1.00       1.0079
     319     1 O    8    6.814337   12.495506   11.664740      6.00      15.9994
     320     2 H    1    6.691932   11.659240   11.184199      1.00       1.0079
     321     2 H    1    6.122716   13.217290   11.534873      1.00       1.0079
     322     1 O    8    6.789068    7.050676    1.431249      6.00      15.9994
     323     2 H    1    7.552188    7.378597    1.947805      1.00       1.0079
     324     2 H    1    6.076297    7.692763    1.572463      1.00       1.0079
     325     1 O    8   10.305826   13.593292    2.289410      6.00      15.9994
     326     2 H    1   10.628401   13.140606    3.114503      1.00       1.0079
     327     2 H    1    9.659346   13.005895    1.872258      1.00       1.0079
     328     1 O    8    4.208438    3.354877    7.994308      6.00      15.9994
     329     2 H    1    3.282675    3.634599    7.861468      1.00       1.0079
     330     2 H    1    4.550326    3.003986    7.115005      1.00       1.0079
     331     1 O    8   10.634334    9.375439    4.673916      6.00      15.9994
     332     2 H    1   10.691654   10.235815    5.091191      1.00       1.0079
     333     2 H    1   11.456271    8.882218    5.043681      1.00       1.0079
     334     1 O    8   11.760775    1.502203    6.605762      6.00      15.9994
     335     2 H    1   10.996101    1.499775    7.270317      1.00       1.0079
     336     2 H    1   11.641549    0.794042    5.970092      1.00       1.0079
     337     1 O    8    1.647106   13.135749   12.126761      6.00      15.9994
     338     2 H    1    2.255031   12.424533   12.576886      1.00       1.0079
     339     2 H    1    1.852260   13.471723   11.214529      1.00       1.0079
     340     1 O    8    5.330844    0.717955    2.146828      6.00      15.9994
     341     2 H    1    6.158971    0.519747    1.714646      1.00       1.0079
     342     2 H    1    5.236281    1.637491    2.077608      1.00       1.0079
     343     1 O    8   11.226420   13.323437   10.862358      6.00      15.9994
     344     2 H    1   10.353393   13.814110   10.979625      1.00       1.0079
     345     2 H    1   11.898456   13.803652   11.475900      1.00       1.0079
     346     1 O    8    0.367143   12.401166    7.408406      6.00      15.9994
     347     2 H    1    0.316324   11.402216    7.412586      1.00       1.0079
     348     2 H    1   -0.525040   12.794490    7.455716      1.00       1.0079
     349     1 O    8    4.673258    7.594893   13.893047      6.00      15.9994
     350     2 H    1    3.724377    7.673805   13.676312      1.00       1.0079
     351     2 H    1    4.854334    6.675019   13.590968      1.00       1.0079
     352     1 O    8    0.492919    0.825579    9.333825      6.00      15.9994
     353     2 H    1    0.314237    0.465881    8.431586      1.00       1.0079
     354     2 H    1    1.499365    0.829153    9.502731      1.00       1.0079
     355     1 O    8   14.843187    7.784228    2.001413      6.00      15.9994
     356     2 H    1   15.080429    8.555192    2.611714      1.00       1.0079
     357     2 H    1   13.976101    7.967477    1.547443      1.00       1.0079
     358     1 O    8    4.008475   11.400594   11.185834      6.00      15.9994
     359     2 H    1    3.730828   12.342455   11.318696      1.00       1.0079
     360     2 H    1    4.455369   10.968565   11.989898      1.00       1.0079
     361     1 O    8    3.668850    3.116532   15.336678      6.00      15.9994
     362     2 H    1    3.402562    2.314252   15.880445      1.00       1.0079
     363     2 H    1    2.963530    3.180007   14.634621      1.00       1.0079
     364     1 O    8   12.063505   14.717739    5.316044      6.00      15.9994
     365     2 H    1   12.126988   14.577668    6.295751      1.00       1.0079
     366     2 H    1   11.132891   14.704074    5.100283      1.00       1.0079
     367     1 O    8    4.801303   12.342373   15.077558      6.00      15.9994
     368     2 H    1    4.465463   13.188972   14.694529      1.00       1.0079
     369     2 H    1    4.778061   11.708347   14.329065      1.00       1.0079
     370     1 O    8   13.118933   13.189813    7.677429      6.00      15.9994
     371     2 H    1   12.398686   12.490152    7.816616      1.00       1.0079
     372     2 H    1   13.408483   13.504974    8.605792      1.00       1.0079
     373     1 O    8    1.886782   14.475015   14.542889      6.00      15.9994
     374     2 H    1    1.432696   13.853002   15.084752      1.00       1.0079
     375     2 H    1    1.716699   14.095645   13.672270      1.00       1.0079



 PW_GRID: Information for grid number                                          1
 PW_GRID: Grid distributed over                                   128 processors
 PW_GRID: Real space group dimensions                                   128    1
 PW_GRID: the grid is blocked:                                                NO
 PW_GRID: Cutoff [a.u.]                                                    500.0
 PW_GRID: spherical cutoff:                                                   NO
 PW_GRID:   Bounds   1           -150     149                Points:         300
 PW_GRID:   Bounds   2           -150     149                Points:         300
 PW_GRID:   Bounds   3           -150     149                Points:         300
 PW_GRID: Volume element (a.u.^3)  0.9372E-03     Volume (a.u.^3)     25303.9229
 PW_GRID: Grid span                                                    FULLSPACE
 PW_GRID:   Distribution                         Average         Max         Min
 PW_GRID:   G-Vectors                           210937.5      211200      210900
 PW_GRID:   G-Rays                                 703.1         704         703
 PW_GRID:   Real Space Points                   210937.5      270000      180000

 PW_GRID: Information for grid number                                          2
 PW_GRID: Grid distributed over                                   128 processors
 PW_GRID: Real space group dimensions                                   128    1
 PW_GRID: the grid is blocked:                                                NO
 PW_GRID: Cutoff [a.u.]                                                    166.7
 PW_GRID: spherical cutoff:                                                   NO
 PW_GRID:   Bounds   1            -90      89                Points:         180
 PW_GRID:   Bounds   2            -90      89                Points:         180
 PW_GRID:   Bounds   3            -90      89                Points:         180
 PW_GRID: Volume element (a.u.^3)  0.4339E-02     Volume (a.u.^3)     25303.9229
 PW_GRID: Grid span                                                    FULLSPACE
 PW_GRID:   Distribution                         Average         Max         Min
 PW_GRID:   G-Vectors                            45562.5       45720       45360
 PW_GRID:   G-Rays                                 253.1         254         252
 PW_GRID:   Real Space Points                    45562.5       64800       32400

 PW_GRID: Information for grid number                                          3
 PW_GRID: Grid distributed over                                   128 processors
 PW_GRID: Real space group dimensions                                     8   16
 PW_GRID: the grid is blocked:                                                NO
 PW_GRID: Cutoff [a.u.]                                                     55.6
 PW_GRID: spherical cutoff:                                                   NO
 PW_GRID:   Bounds   1            -50      49                Points:         100
 PW_GRID:   Bounds   2            -50      49                Points:         100
 PW_GRID:   Bounds   3            -50      49                Points:         100
 PW_GRID: Volume element (a.u.^3)  0.2530E-01     Volume (a.u.^3)     25303.9229
 PW_GRID: Grid span                                                    FULLSPACE
 PW_GRID:   Distribution                         Average         Max         Min
 PW_GRID:   G-Vectors                             7812.5        7900        7700
 PW_GRID:   G-Rays                                  78.1          79          77
 PW_GRID:   Real Space Points                     7812.5        9100        7200

 PW_GRID: Information for grid number                                          4
 PW_GRID: Grid distributed over                                   128 processors
 PW_GRID: Real space group dimensions                                     8   16
 PW_GRID: the grid is blocked:                                                NO
 PW_GRID: Cutoff [a.u.]                                                     18.5
 PW_GRID: spherical cutoff:                                                   NO
 PW_GRID:   Bounds   1            -30      29                Points:          60
 PW_GRID:   Bounds   2            -30      29                Points:          60
 PW_GRID:   Bounds   3            -30      29                Points:          60
 PW_GRID: Volume element (a.u.^3)  0.1171         Volume (a.u.^3)     25303.9229
 PW_GRID: Grid span                                                    FULLSPACE
 PW_GRID:   Distribution                         Average         Max         Min
 PW_GRID:   G-Vectors                             1687.5        1740        1620
 PW_GRID:   G-Rays                                  28.1          29          27
 PW_GRID:   Real Space Points                     1687.5        1920        1260

 PW_GRID: Information for grid number                                          5
 PW_GRID: Grid distributed over                                   128 processors
 PW_GRID: Real space group dimensions                                     8   16
 PW_GRID: the grid is blocked:                                                NO
 PW_GRID: Cutoff [a.u.]                                                      6.2
 PW_GRID: spherical cutoff:                                                   NO
 PW_GRID:   Bounds   1            -18      17                Points:          36
 PW_GRID:   Bounds   2            -18      17                Points:          36
 PW_GRID:   Bounds   3            -18      17                Points:          36
 PW_GRID: Volume element (a.u.^3)  0.5424         Volume (a.u.^3)     25303.9229
 PW_GRID: Grid span                                                    FULLSPACE
 PW_GRID:   Distribution                         Average         Max         Min
 PW_GRID:   G-Vectors                              364.5         396         324
 PW_GRID:   G-Rays                                  10.1          11           9
 PW_GRID:   Real Space Points                      364.5         540         288

 RS_GRID: Information for grid number                                          1
 RS_GRID:   Bounds   1           -150     149                Points:         300
 RS_GRID:   Bounds   2           -150     149                Points:         300
 RS_GRID:   Bounds   3           -150     149                Points:         300
 RS_GRID: Real space distribution over                                  4 groups
 RS_GRID: Real space distribution along direction                              1
 RS_GRID: Border size                                                         20
 RS_GRID: Real space distribution over                                  4 groups
 RS_GRID: Real space distribution along direction                              2
 RS_GRID: Border size                                                         20
 RS_GRID: Real space distribution over                                  8 groups
 RS_GRID: Real space distribution along direction                              3
 RS_GRID: Border size                                                         20
 RS_GRID:   Distribution                         Average         Max         Min
 RS_GRID:   Planes                                 115.0         115         115
 RS_GRID:   Distribution                         Average         Max         Min
 RS_GRID:   Planes                                 115.0         115         115
 RS_GRID:   Distribution                         Average         Max         Min
 RS_GRID:   Planes                                  77.5          78          77

 RS_GRID: Information for grid number                                          2
 RS_GRID:   Bounds   1            -90      89                Points:         180
 RS_GRID:   Bounds   2            -90      89                Points:         180
 RS_GRID:   Bounds   3            -90      89                Points:         180
 RS_GRID: Real space distribution over                                  4 groups
 RS_GRID: Real space distribution along direction                              1
 RS_GRID: Border size                                                         18
 RS_GRID: Real space distribution over                                  4 groups
 RS_GRID: Real space distribution along direction                              2
 RS_GRID: Border size                                                         18
 RS_GRID: Real space distribution over                                  8 groups
 RS_GRID: Real space distribution along direction                              3
 RS_GRID: Border size                                                         18
 RS_GRID:   Distribution                         Average         Max         Min
 RS_GRID:   Planes                                  81.0          81          81
 RS_GRID:   Distribution                         Average         Max         Min
 RS_GRID:   Planes                                  81.0          81          81
 RS_GRID:   Distribution                         Average         Max         Min
 RS_GRID:   Planes                                  58.5          59          58

 RS_GRID: Information for grid number                                          3
 RS_GRID:   Bounds   1            -50      49                Points:         100
 RS_GRID:   Bounds   2            -50      49                Points:         100
 RS_GRID:   Bounds   3            -50      49                Points:         100
 RS_GRID: Real space fully replicated
 RS_GRID: Group size                                                           1

 RS_GRID: Information for grid number                                          4
 RS_GRID:   Bounds   1            -30      29                Points:          60
 RS_GRID:   Bounds   2            -30      29                Points:          60
 RS_GRID:   Bounds   3            -30      29                Points:          60
 RS_GRID: Real space fully replicated
 RS_GRID: Group size                                                           1

 RS_GRID: Information for grid number                                          5
 RS_GRID:   Bounds   1            -18      17                Points:          36
 RS_GRID:   Bounds   2            -18      17                Points:          36
[...]
     Hotelling iter   3 1.00000000   0.775E-01       0.012      194.078
     Hotelling iter   4 1.00000000   0.705E-02       0.012      194.132
     Hotelling iter   5 1.00000000   0.830E-04       0.012      194.824
     Hotelling iter   6 1.00000000   0.163E-07       0.012      196.379
     Hotelling iter   7 1.00000000   0.186E-14       0.012      193.756
 Maximum norm of dE/dT:   1.64311586785745919E-003
 Grad orthogonality error:   4.03314551912622708E-005
 Step orthogonality error:   5.89750706295089793E-005
 ALMO SCF LS    12   -362.775815536613   0.000E+00   0.165E-02   0.140E+00    -0.23619     1.143
 VAR1: |B*X|:   0.13412267862769620     
 VAR1: |Q.X|:   0.13412267862769620     
 VAR1: |T0+Q.X|:   0.94860549348609879     

     Hotelling iter   1 1.00000000   0.956E+00       0.012      195.894
     Hotelling iter   2 1.00000000   0.334E+00       0.011      199.061
     Hotelling iter   3 1.00000000   0.775E-01       0.012      197.376
     Hotelling iter   4 1.00000000   0.705E-02       0.012      194.358
     Hotelling iter   5 1.00000000   0.830E-04       0.012      197.444
     Hotelling iter   6 1.00000000   0.163E-07       0.012      197.004
     Hotelling iter   7 1.00000000   0.195E-14       0.012      190.602
 Maximum norm of dE/dT:   8.64071600884835922E-004
 Grad orthogonality error:   3.01665832909663717E-005
 ....updating step direction....
 ....applying preconditioner....
 ....special case 1....
 Dir orthogonality error:   1.08533920310524141E-005
 ....final beta....  0.14934197829034751     
 Step orthogonality error:   1.64534187732478530E-005
 ALMO SCF CG    13   -362.775823349192  -0.919E-04   0.867E-03   0.115E-04     0.85072     1.446
 VAR1: |B*X|:   0.13414627077975705     
 VAR1: |Q.X|:   0.13414627077975705     
 VAR1: |T0+Q.X|:   0.94859114166189262     

     Hotelling iter   1 1.00000000   0.956E+00       0.012      195.804
     Hotelling iter   2 1.00000000   0.334E+00       0.012      195.793
     Hotelling iter   3 1.00000000   0.775E-01       0.011      199.815
     Hotelling iter   4 1.00000000   0.705E-02       0.012      194.907
     Hotelling iter   5 1.00000000   0.830E-04       0.012      197.224
     Hotelling iter   6 1.00000000   0.163E-07       0.011      198.685
     Hotelling iter   7 1.00000000   0.189E-14       0.011      198.296
 Maximum norm of dE/dT:   5.15006014045006622E-004
 Grad orthogonality error:   1.67439606953270237E-005
 ....updating step direction....
 ....applying preconditioner....
 ....special case 1....
 Dir orthogonality error:   5.31755005573236280E-006
 ....final beta....  0.23329599422141201     
 Step orthogonality error:   8.99319423890735460E-006
 ALMO SCF CG    14   -362.775837645289  -0.143E-04   0.517E-03   0.329E-02     0.89326     1.444
 VAR1: |B*X|:   0.13410756995892567     
 VAR1: |Q.X|:   0.13410756995892567     
 VAR1: |T0+Q.X|:   0.94858920150692316     

     Hotelling iter   1 1.00000000   0.956E+00       0.011      198.079
     Hotelling iter   2 1.00000000   0.334E+00       0.012      197.293
     Hotelling iter   3 1.00000000   0.775E-01       0.012      193.920
     Hotelling iter   4 1.00000000   0.705E-02       0.012      194.623
     Hotelling iter   5 1.00000000   0.830E-04       0.011      199.035
     Hotelling iter   6 1.00000000   0.163E-07       0.012      187.769
     Hotelling iter   7 1.00000000   0.191E-14       0.012      193.726
 Maximum norm of dE/dT:   2.10990674352746154E-004
 Grad orthogonality error:   4.55112745053316635E-006
 Step orthogonality error:   8.98568169939100735E-006
 ALMO SCF LS    15   -362.775841203227   0.000E+00   0.211E-03  -0.251E-01     0.04654     1.141
 VAR1: |B*X|:   0.13410555362944032     
 VAR1: |Q.X|:   0.13410555362944032     
 VAR1: |T0+Q.X|:   0.94858910042401101     

     Hotelling iter   1 1.00000000   0.956E+00       0.012      192.916
     Hotelling iter   2 1.00000000   0.334E+00       0.012      194.547
     Hotelling iter   3 1.00000000   0.775E-01       0.012      196.503
     Hotelling iter   4 1.00000000   0.705E-02       0.011      197.778
     Hotelling iter   5 1.00000000   0.830E-04       0.012      194.603
     Hotelling iter   6 1.00000000   0.163E-07       0.012      196.227
     Hotelling iter   7 1.00000000   0.196E-14       0.012      193.847
 Maximum norm of dE/dT:   2.46024137979980050E-004
 Grad orthogonality error:   4.23994176503372763E-006
 ....updating step direction....
 ....applying preconditioner....
 ....special case 1....
 Dir orthogonality error:   1.91984270895928868E-006
 ....final beta....  0.19953395553098019     
 Step orthogonality error:   3.63305229704466877E-006
 ALMO SCF CG    16   -362.775841211973  -0.357E-05   0.246E-03  -0.154E-06     0.98679     1.444
 VAR1: |B*X|:   0.13410658430427885     
 VAR1: |Q.X|:   0.13410658430427885     
 VAR1: |T0+Q.X|:   0.94858851760609120     

     Hotelling iter   1 1.00000000   0.956E+00       0.012      195.548
     Hotelling iter   2 1.00000000   0.334E+00       0.011      199.202
     Hotelling iter   3 1.00000000   0.775E-01       0.012      196.040
     Hotelling iter   4 1.00000000   0.705E-02       0.012      196.251
     Hotelling iter   5 1.00000000   0.830E-04       0.011      202.502
     Hotelling iter   6 1.00000000   0.163E-07       0.012      195.548
     Hotelling iter   7 1.00000000   0.183E-14       0.012      196.097
 Maximum norm of dE/dT:   1.58345464048924235E-004
 Grad orthogonality error:   1.91962582022326716E-006
 Step orthogonality error:   3.63085513959670998E-006
 ALMO SCF LS    17   -362.775841890005   0.000E+00   0.159E-03   0.661E-01    -0.12190     1.140
 VAR1: |B*X|:   0.13410645698326804     
 VAR1: |Q.X|:   0.13410645698326804     
 VAR1: |T0+Q.X|:   0.94858858960257730     

     Hotelling iter   1 1.00000000   0.956E+00       0.012      195.620
     Hotelling iter   2 1.00000000   0.334E+00       0.012      196.105
     Hotelling iter   3 1.00000000   0.775E-01       0.015      151.774
     Hotelling iter   4 1.00000000   0.705E-02       0.012      197.404
     Hotelling iter   5 1.00000000   0.830E-04       0.012      196.603
     Hotelling iter   6 1.00000000   0.163E-07       0.011      200.625
     Hotelling iter   7 1.00000000   0.189E-14       0.011      201.101
 Maximum norm of dE/dT:   1.08393060295263713E-004
 Grad orthogonality error:   2.11072355983181005E-006
 ....updating step direction....
 ....applying preconditioner....
 ....special case 1....
 Dir orthogonality error:   9.91773619436342768E-007
 ....final beta....  0.16917025380256481     
 Step orthogonality error:   1.54006228790808938E-006
 ALMO SCF CG    18   -362.775841903746  -0.692E-06   0.109E-03   0.417E-07     0.90813     1.451
 VAR1: |B*X|:   0.13410465298526877     
 VAR1: |Q.X|:   0.13410465298526877     
 VAR1: |T0+Q.X|:   0.94858811224962336     

     Hotelling iter   1 1.00000000   0.956E+00       0.012      195.397
     Hotelling iter   2 1.00000000   0.334E+00       0.011      199.142
     Hotelling iter   3 1.00000000   0.775E-01       0.012      195.624
     Hotelling iter   4 1.00000000   0.705E-02       0.012      194.312
     Hotelling iter   5 1.00000000   0.830E-04       0.011      198.459
     Hotelling iter   6 1.00000000   0.163E-07       0.012      197.470
     Hotelling iter   7 1.00000000   0.187E-14       0.012      194.153
 Maximum norm of dE/dT:   5.41166147784641338E-005
 Grad orthogonality error:   1.32507223208282954E-006
 ....updating step direction....
 ....applying preconditioner....
 ....special case 1....
 Dir orthogonality error:   5.54471944400688643E-007
 ....final beta....  0.22041147899456967     
 Step orthogonality error:   8.95890665249836273E-007
 ALMO SCF CG    19   -362.775842026414  -0.123E-06   0.542E-04  -0.275E-02     0.95354     1.444
 VAR1: |B*X|:   0.13410324524615433     
 VAR1: |Q.X|:   0.13410324524615433     
 VAR1: |T0+Q.X|:   0.94858822228709205     

     Hotelling iter   1 1.00000000   0.956E+00       0.012      193.655
     Hotelling iter   2 1.00000000   0.334E+00       0.011      198.696
     Hotelling iter   3 1.00000000   0.775E-01       0.012      195.603
     Hotelling iter   4 1.00000000   0.705E-02       0.012      193.040
     Hotelling iter   5 1.00000000   0.830E-04       0.012      197.319
     Hotelling iter   6 1.00000000   0.163E-07       0.011      198.003
     Hotelling iter   7 1.00000000   0.190E-14       0.012      196.150
 Maximum norm of dE/dT:   3.22916907430012556E-005
 Grad orthogonality error:   5.38906413843500619E-007
 ....updating step direction....
 ....applying preconditioner....
 ....special case 1....
 Dir orthogonality error:   2.46626333239528283E-007
 ....final beta....  0.26530192041929701     
 Step orthogonality error:   4.68063335520443405E-007
 ALMO SCF CG    20   -362.775842055632  -0.292E-07   0.323E-04  -0.407E-03     1.00122     1.448
 VAR1: |B*X|:   0.13410770589488649     
 VAR1: |Q.X|:   0.13410770589488649     
 VAR1: |T0+Q.X|:   0.94858837365596127     

     Hotelling iter   1 1.00000000   0.956E+00       0.012      196.831
     Hotelling iter   2 1.00000000   0.334E+00       0.011      199.152
     Hotelling iter   3 1.00000000   0.775E-01       0.012      195.156
     Hotelling iter   4 1.00000000   0.705E-02       0.012      194.957
     Hotelling iter   5 1.00000000   0.830E-04       0.011      202.500
     Hotelling iter   6 1.00000000   0.163E-07       0.012      187.961
     Hotelling iter   7 1.00000000   0.190E-14       0.012      193.323
 Maximum norm of dE/dT:   1.89454717340069214E-005
 Grad orthogonality error:   2.54862520423887980E-007
 Step orthogonality error:   4.68097711897948545E-007
 ALMO SCF LS    21   -362.775842062431   0.000E+00   0.189E-04   0.606E-01    -0.12143     1.141
 VAR1: |B*X|:   0.13410716489958879     
 VAR1: |Q.X|:   0.13410716489958879     
 VAR1: |T0+Q.X|:   0.94858835529767949     

     Hotelling iter   1 1.00000000   0.956E+00       0.012      195.811
     Hotelling iter   2 1.00000000   0.334E+00       0.012      196.505
     Hotelling iter   3 1.00000000   0.775E-01       0.011      198.236
     Hotelling iter   4 1.00000000   0.705E-02       0.012      195.034
     Hotelling iter   5 1.00000000   0.830E-04       0.012      195.494
     Hotelling iter   6 1.00000000   0.163E-07       0.012      196.253
     Hotelling iter   7 1.00000000   0.182E-14       0.012      195.852
 Maximum norm of dE/dT:   1.30521411594519080E-005
 Grad orthogonality error:   2.58906374548882388E-007
 ....updating step direction....
 ....applying preconditioner....
 ....special case 1....
 Dir orthogonality error:   1.19168722530866859E-007
 ....final beta....  0.20541459908019088     
 Step orthogonality error:   2.07146038877656232E-007
 ALMO SCF CG    22   -362.775842062563  -0.693E-08   0.130E-04   0.241E-07     0.92378     1.445
 VAR1: |B*X|:   0.13410710428956435     
 VAR1: |Q.X|:   0.13410710428956435     
 VAR1: |T0+Q.X|:   0.94858832640696089     

     Hotelling iter   1 1.00000000   0.956E+00       0.011      197.741
     Hotelling iter   2 1.00000000   0.334E+00       0.012      182.782
     Hotelling iter   3 1.00000000   0.775E-01       0.012      196.785
     Hotelling iter   4 1.00000000   0.705E-02       0.012      194.410
     Hotelling iter   5 1.00000000   0.830E-04       0.011      198.184
     Hotelling iter   6 1.00000000   0.163E-07       0.012      192.919
     Hotelling iter   7 1.00000000   0.189E-14       0.012      197.495
 Maximum norm of dE/dT:   5.76947140343590445E-006
 Grad orthogonality error:   1.31207938597708699E-007
 ALMO SCF CG    23   -362.775842064048  -0.693E-08   0.577E-05   0.241E-07     0.92378     0.977
 _ENERGY-0:   -2151.4314003816344     
 _ENERGY-D:   -1.4817970989163460     
 _ENERGY-F:   -2152.9131974805509     

 DECOMPOSITION OF THE DELOCALIZATION ENERGY

 ENERGY| Total FORCE_EVAL ( QS ) energy (a.u.):            -2151.431400423377454


 -------------------------------------------------------------------------------
 ----                             MULTIGRID INFO                            ----
 -------------------------------------------------------------------------------
 count for grid        1:        1664327          cutoff [a.u.]          500.00
 count for grid        2:        1514803          cutoff [a.u.]          166.67
 count for grid        3:        1403758          cutoff [a.u.]           55.56
 count for grid        4:        1380772          cutoff [a.u.]           18.52
 count for grid        5:        2634728          cutoff [a.u.]            6.17
 total gridlevel count  :        8598388

 -------------------------------------------------------------------------------
 -                                                                             -
 -                         MESSAGE PASSING PERFORMANCE                         -
 -                                                                             -
 -------------------------------------------------------------------------------

 ROUTINE             CALLS  TOT TIME [s]  AVE VOLUME [Bytes]  PERFORMANCE [MB/s]
 MP_Group                5         0.000
 MP_Bcast               50         0.013            4195123.            16561.68
 MP_Allreduce          213         1.022               7780.                1.62
 MP_Gather               4         0.006               3584.                2.59
 MP_Sync                 5         0.001
 MP_Alltoall           723        25.442            4785633.              136.00
 MP_ISendRecv        19812         0.061              30827.             9965.72
 MP_Wait             24222         5.923
 MP_ISend             3990         0.182             172551.             3785.36
 MP_IRecv             3990         0.228             172416.             3014.04
 -------------------------------------------------------------------------------


 -------------------------------------------------------------------------------
 -                                                                             -
 -                           R E F E R E N C E S                               -
 -                                                                             -
 -------------------------------------------------------------------------------
 
 CP2K version 2.2.268 (Development Version), the CP2K developers group (2011).
 CP2K is freely available from http://cp2k.berlios.de/ .

 VandeVondele, J; Hutter, J. 
 JOURNAL OF CHEMICAL PHYSICS, 127 (11), 114105 (2007). 
 Gaussian basis sets for accurate calculations on molecular systems in
 gas and condensed phases.
 http://dx.doi.org/10.1063/1.2770708


 Krack, M. 
 THEORETICAL CHEMISTRY ACCOUNTS, 114 (1-3), 145-152 (2005). 
 Pseudopotentials for H to Kr optimized for gradient-corrected
 exchange-correlation functionals.
 http://dx.doi.org/10.1007/s00214-005-0655-y


 VandeVondele, J; Krack, M; Mohamed, F; Parrinello, M; Chassaing, T;
 Hutter, J. COMPUTER PHYSICS COMMUNICATIONS, 167 (2), 103-128 (2005). 
 QUICKSTEP: Fast and accurate density functional calculations using a
 mixed Gaussian and plane waves approach.
 http://dx.doi.org/10.1016/j.cpc.2004.12.014


 Frigo, M; Johnson, SG. 
 PROCEEDINGS OF THE IEEE, 93 (2), 216-231 (2005). 
 The design and implementation of FFTW3.
 http://dx.doi.org/10.1109/JPROC.2004.840301


 Hartwigsen, C; Goedecker, S; Hutter, J. 
 PHYSICAL REVIEW B, 58 (7), 3641-3662 (1998). 
 Relativistic separable dual-space Gaussian pseudopotentials from H to Rn.
 http://dx.doi.org/10.1103/PhysRevB.58.3641


 Lippert, G; Hutter, J; Parrinello, M. 
 MOLECULAR PHYSICS, 92 (3), 477-487 (1997). 
 A hybrid Gaussian and plane wave density functional scheme.
 http://dx.doi.org/10.1080/002689797170220


 Goedecker, S; Teter, M; Hutter, J. 
 PHYSICAL REVIEW B, 54 (3), 1703-1710 (1996). 
 Separable dual-space Gaussian pseudopotentials.
 http://dx.doi.org/10.1103/PhysRevB.54.1703


 BECKE, AD. PHYSICAL REVIEW A, 38 (6), 3098-3100 (1988). 
 DENSITY-FUNCTIONAL EXCHANGE-ENERGY APPROXIMATION WITH CORRECT
 ASYMPTOTIC-BEHAVIOR.
 http://dx.doi.org/10.1103/PhysRevA.38.3098


 LEE, CT; YANG, WT; PARR, RG. 
 PHYSICAL REVIEW B, 37 (2), 785-789 (1988). 
 DEVELOPMENT OF THE COLLE-SALVETTI CORRELATION-ENERGY FORMULA INTO A
 FUNCTIONAL OF THE ELECTRON-DENSITY.
 http://dx.doi.org/10.1103/PhysRevB.37.785


 -------------------------------------------------------------------------------
 -                                                                             -
 -                                T I M I N G                                  -
 -                                                                             -
 -------------------------------------------------------------------------------
 SUBROUTINE                       CALLS  ASD         SELF TIME        TOTAL TIME
                                              AVERAGE  MAXIMUM  AVERAGE  MAXIMUM
 CP2K                                 1  1.0    0.032    0.037  337.794  337.848
 qs_energies_scf                      1  2.0    0.000    0.000  337.153  337.218
 almo_entry_scf                       1  3.0    0.000    0.000  332.963  333.027
 almo_scf_main                        1  4.0    0.000    0.000  275.371  275.458
 almo_scf_dm_to_ks                   25  6.0    0.000    0.000  270.155  270.410
 almo_scf_main_block_diagonal         1  5.0    0.000    0.001  239.358  239.439
 qs_ks_update_qs_env                 26  7.0    0.001    0.001  164.212  164.462
 qs_ks_build_kohn_sham_matrix        26  8.0    0.032    0.040  164.170  164.421
 sum_up_and_integrate                26  9.0    0.162    0.203  132.440  132.693
 integrate_v_rspace                  26 10.0  116.054  118.018  132.279  132.554
 qs_rho_update_rho                   26  7.0    0.000    0.000  115.567  115.591
 calculate_rho_elec                  26  8.0   95.334   97.942  115.566  115.591
 almo_scf_main_quenched_almos         2  5.0    0.034    0.058   81.914   81.941
 almo_post_scf                        1  4.0    0.001    0.001   45.942   45.963
 cp_dbcsr_multiply_d               1870  7.4    0.009    0.010   45.281   45.521
 fft_wrap_pw1pw2                    495 10.9    0.015    0.019   36.372   36.856
 fft_wrap_pw1pw2_500                287 11.9    2.143    2.613   34.510   34.972
 fft3d_ps                           495 12.9    9.771   11.689   30.523   31.425
 qs_vxc_create                       26  9.0    0.002    0.002   27.432   27.569
 xc_vxc_pw_create                    26 10.0    0.450    0.527   27.431   27.568
 cp_dbcsr_mult_NS_NR                274  7.6   24.971   25.730   24.978   25.736
 density_rs2pw                       26  9.0    0.650    0.960   15.173   17.590
 rs_pw_transfer                     261 10.9    0.008    0.023   12.484   14.985
 xc_rho_set_and_dset_create          26 11.0    1.724    2.195   14.049   14.810
 almo_scf_t_to_p                     49  6.4    0.001    0.001   13.244   13.535
 distribute_matrix                   52 10.0    9.203   11.842    9.410   11.911
 almo_scf_init                        1  4.0    0.000    0.000   11.649   11.659
 almo_scf_init_qs                     1  5.0    0.180    0.182   11.354   11.364
 x_to_yz                            182 14.1   10.862   11.183   10.862   11.183
 yz_to_x                            157 13.8    9.491   10.894    9.491   10.894
 potential_pw2rs                     26 11.0    0.017    0.019    9.832    9.867
 -------------------------------------------------------------------------------

  **** **** ******  **  PROGRAM ENDED AT                 2012-06-12 21:46:47.320
 ***** ** ***  *** **   PROGRAM RAN ON                                  nid00029
 **    ****   ******    PROGRAM RAN BY                                  root ;-)
 ***** **    ** ** **   PROGRAM PROCESS ID                                 19119
  **** **  *******  **  PROGRAM STOPPED IN /scratch/weisshorn/rustamr/e298-1.304
                                           388
Application 983402 resources: utime ~41826s, stime ~1482s
