
  **** **** ******  **  PROGRAM STARTED AT               2012-06-12 21:29:39.651
 ***** ** ***  *** **   PROGRAM STARTED ON                              nid00029
 **    ****   ******    PROGRAM STARTED BY                              root ;-)
 ***** **    ** ** **   PROGRAM PROCESS ID                                 18979
  **** **  *******  **  PROGRAM STARTED IN /scratch/weisshorn/rustamr/e298-1.304
                                           388

 CP2K| version string:                CP2K version 2.2.268 (Development Version)
 CP2K| is freely available from                          http://cp2k.berlios.de/
 CP2K| Program compiled at                         Sun May 27 15:14:38 CEST 2012
 CP2K| Program compiled on                                                 rosa5
 CP2K| Program compiled for                                    rosa-new-gfortran
 CP2K| Last CVS entry                xas_tp_scf.F/1.101/Wed Jun 29 13:43:33 2011
 CP2K| Input file name                                           bulk.090006.inp

 GLOBAL| Force Environment number                                              1
 GLOBAL| Basis set file name            /users/rustamr/dev/cp2k/tests/QS/BASIS_M
 GLOBAL| Geminal file name                                         BASIS_GEMINAL
 GLOBAL| Potential file name            /users/rustamr/dev/cp2k/tests/QS/GTH_POT
 GLOBAL| MM Potential file name                                     MM_POTENTIAL
 GLOBAL| Coordinate file name                                      __STD_INPUT__
 GLOBAL| Method name                                                        CP2K
 GLOBAL| Project name                                                       bulk
 GLOBAL| Preferred FFT library                                             FFTW3
 GLOBAL| Run type                                                         ENERGY
 GLOBAL| All-to-all communication in single precision                          F
 GLOBAL| FFTs using library dependent lengths                                  F
 GLOBAL| Global print level                                               MEDIUM
 GLOBAL| Total number of message passing processes                           128
 GLOBAL| Number of threads for this process                                    1
 GLOBAL| This output is from process                                           0

 MEMORY| system memory details [Kb]
 MEMORY|                        rank 0           min           max       average
 MEMORY| MemTotal             33082792      33082792      33082792      33082792
 MEMORY| MemFree              30722372      30718084      30724320      30721782
 MEMORY| Buffers                     0             0             0             0
 MEMORY| Cached                 109376        108720        109632        109174
 MEMORY| Slab                   192816        191720        192816        192205
 MEMORY| SReclaimable             4560          4388          4560          4472
 MEMORY| MemLikelyFree        30836308      30832104      30837516      30835428

 DBCSR| Multiplication driver                                                SMM
 DBCSR| Multiplication stack size                                           1000
 DBCSR| Use subcommunicators                                                   F
 DBCSR| Use MPI combined types                                                 F
 DBCSR| Use MPI memory allocation                                              T


 *** Fundamental physical constants (SI units) ***

 *** Literature: B. J. Mohr and B. N. Taylor,
 ***             CODATA recommended values of the fundamental physical
 ***             constants: 2006, Web Version 5.1
 ***             http://physics.nist.gov/constants

 Speed of light in vacuum [m/s]                             2.99792458000000E+08
 Magnetic constant or permeability of vacuum [N/A**2]       1.25663706143592E-06
 Electric constant or permittivity of vacuum [F/m]          8.85418781762039E-12
 Planck constant (h) [J*s]                                  6.62606896000000E-34
 Planck constant (h-bar) [J*s]                              1.05457162825177E-34
 Elementary charge [C]                                      1.60217648700000E-19
 Electron mass [kg]                                         9.10938215000000E-31
 Electron g factor [ ]                                     -2.00231930436220E+00
 Proton mass [kg]                                           1.67262163700000E-27
 Fine-structure constant                                    7.29735253760000E-03
 Rydberg constant [1/m]                                     1.09737315685270E+07
 Avogrado constant [1/mol]                                  6.02214179000000E+23
 Boltzmann constant [J/K]                                   1.38065040000000E-23
 Atomic mass unit [kg]                                      1.66053878200000E-27
 Bohr radius [m]                                            5.29177208590000E-11

 *** Conversion factors ***

 [u] -> [a.u.]                                              1.82288848426455E+03
 [Angstrom] -> [Bohr] = [a.u.]                              1.88972613288564E+00
 [a.u.] = [Bohr] -> [Angstrom]                              5.29177208590000E-01
 [a.u.] -> [s]                                              2.41888432650478E-17
 [a.u.] -> [fs]                                             2.41888432650478E-02
 [a.u.] -> [J]                                              4.35974393937059E-18
 [a.u.] -> [K]                                              3.15774647902944E+05
 [a.u.] -> [kJ/mol]                                         2.62549961709828E+03
 [a.u.] -> [kcal/mol]                                       6.27509468713739E+02
 [a.u.] -> [Pa]                                             2.94210107994716E+13
 [a.u.] -> [bar]                                            2.94210107994716E+08
 [a.u.] -> [atm]                                            2.90362800883016E+08
 [a.u.] -> [eV]                                             2.72113838565563E+01
 [a.u.] -> [Hz]                                             6.57968392072181E+15
 [a.u.] -> [1/cm] (wave numbers)                            2.19474631370540E+05
 [a.u./Bohr**2] -> [1/cm]                                   5.14048714338585E+03
 

 CELL| Volume [angstrom^3]:                                             3749.654
 CELL| Vector a [angstrom]:      15.536     0.000     0.000    |a| =      15.536
 CELL| Vector b [angstrom]:       0.000    15.536     0.000    |b| =      15.536
 CELL| Vector c [angstrom]:       0.000     0.000    15.536    |c| =      15.536
 CELL| Angle (b,c), alpha [degree]:                                       90.000
 CELL| Angle (a,c), beta  [degree]:                                       90.000
 CELL| Angle (a,b), gamma [degree]:                                       90.000

 CELL_REF| Volume [angstrom^3]:                                         3749.654
 CELL_REF| Vector a [angstrom    15.536     0.000     0.000    |a| =      15.536
 CELL_REF| Vector b [angstrom     0.000    15.536     0.000    |b| =      15.536
 CELL_REF| Vector c [angstrom     0.000     0.000    15.536    |c| =      15.536
 CELL_REF| Angle (b,c), alpha [degree]:                                   90.000
 CELL_REF| Angle (a,c), beta  [degree]:                                   90.000
 CELL_REF| Angle (a,b), gamma [degree]:                                   90.000

 CELL_TOP| Volume [angstrom^3]:                                         3749.654
 CELL_TOP| Vector a [angstrom    15.536     0.000     0.000    |a| =      15.536
 CELL_TOP| Vector b [angstrom     0.000    15.536     0.000    |b| =      15.536
 CELL_TOP| Vector c [angstrom     0.000     0.000    15.536    |c| =      15.536
 CELL_TOP| Angle (b,c), alpha [degree]:                                   90.000
 CELL_TOP| Angle (a,c), beta  [degree]:                                   90.000
 CELL_TOP| Angle (a,b), gamma [degree]:                                   90.000

 GENERATE|  Preliminary Number of Bonds generated:                           250
 GENERATE|  Achieved consistency in connectivity generation.
 GENERATE|  Number of Bonds generated:                                       250
 REORDER |  
 REORDER |  Reordering Molecules. The Reordering of molecules will override all
 REORDER |  information regarding molecule names and residue names.
 REORDER |  New ones will be provided on the basis of the connectivity!
 REORDER |  Number of unique molecules found:      1.
 REORDER |  

 GENERATE|  Preliminary Number of Bonds generated:                           250
 GENERATE|  Achieved consistency in connectivity generation.
 GENERATE|  Number of Bonds generated:                                       250
 GENERATE|  Preliminary Number of Bends generated:                           125
 GENERATE|  Number of Bends generated:                                       125
 GENERATE|  Number of UB generated:                                          125
 GENERATE|  Preliminary Number of Torsions generated:                          0
 GENERATE|  Number of Torsions generated:                                      0
 GENERATE|  Number of Impropers generated:                                     0
 GENERATE|  Number of 1-4 interactions generated:                              0

 *******************************************************************************
 *******************************************************************************
 **                                                                           **
 **     #####                         ##              ##                      **
 **    ##   ##            ##          ##              ##                      **
 **   ##     ##                       ##            ######                    **
 **   ##     ##  ##   ##  ##   #####  ##  ##   ####   ##    #####    #####    **
 **   ##     ##  ##   ##  ##  ##      ## ##   ##      ##   ##   ##  ##   ##   **
 **   ##  ## ##  ##   ##  ##  ##      ####     ###    ##   ######   ######    **
 **    ##  ###   ##   ##  ##  ##      ## ##      ##   ##   ##       ##        **
 **     #######   #####   ##   #####  ##  ##  ####    ##    #####   ##        **
 **           ##                                                    ##        **
 **                                                                           **
 **                                                ... make the atoms dance   **
 **                                                                           **
 **            Copyright (C) by CP2K Developers Group (2000 - 2011)           **
 **                                                                           **
 *******************************************************************************

 DFT| Spin restricted Kohn-Sham (RKS) calculation                            RKS
 DFT| Multiplicity                                                             1
 DFT| Number of spin states                                                    1
 DFT| Charge                                                                   0
 DFT| Self-interaction correction (SIC)                                       NO
 DFT| Cutoffs: density                                              1.000000E-10
 DFT|          gradient                                             1.000000E-10
 DFT|          tau                                                  1.000000E-10
 DFT|          cutoff_smoothing_range                               0.000000E+00
 DFT| XC density smoothing                                                  NONE
 DFT| XC derivatives                                                          PW
 FUNCTIONAL| ROUTINE=NEW
 FUNCTIONAL| BECKE88:
 FUNCTIONAL| A. Becke, Phys. Rev. A 38, 3098 (1988) {LDA version}
 FUNCTIONAL| LYP:
 FUNCTIONAL| C. Lee, W. Yang, R.G. Parr, Phys. Rev. B, 37, 785 (1988) {LDA versi
 FUNCTIONAL| on}

 QS| Method:                                                                 GPW
 QS| Density plane wave grid type                        NON-SPHERICAL FULLSPACE
 QS| Number of grid levels:                                                    5
 QS| Density cutoff [a.u.]:                                                500.0
 QS| Multi grid cutoff [a.u.]: 1) grid level                               500.0
 QS|                           2) grid level                               166.7
 QS|                           3) grid level                                55.6
 QS|                           4) grid level                                18.5
 QS|                           5) grid level                                 6.2
 QS| Grid level progression factor:                                          3.0
 QS| Relative density cutoff [a.u.]:                                        15.0
 QS| Consistent realspace mapping and integration 
 QS| Interaction thresholds: eps_pgf_orb:                                1.0E-05
 QS|                         eps_filter_matrix:                          0.0E+00
 QS|                         eps_core_charge:                            1.0E-12
 QS|                         eps_rho_gspace:                             1.0E-10
 QS|                         eps_rho_rspace:                             1.0E-10
 QS|                         eps_gvg_rspace:                             1.0E-05
 QS|                         eps_ppl:                                    1.0E-02
 QS|                         eps_ppnl:                                   1.0E-07


 ATOMIC KIND INFORMATION

  1. Atomic kind: O                                     Number of atoms:     125

     Orbital basis set information for                          TZV2P-MOLOPT-GTH

       Number of orbital shell sets:                                           1
       Number of orbital shells:                                               8
       Number of primitive Cartesian functions:                                7
       Number of Cartesian basis functions:                                   24
       Number of spherical basis functions:                                   22

       Normalised Cartesian orbitals:

                        Set   Shell   Orbital            Exponent    Coefficient

                          1       1    2s               12.015955      -0.284499
                                                         5.108150      -0.322498
                                                         2.048398       0.148191
                                                         0.832382       0.295475
                                                         0.352316       0.150829
                                                         0.142977       0.015788
                                                         0.046761      -0.000019

                          1       2    3s               12.015955       0.725622
                                                         5.108150       0.644384
                                                         2.048398      -0.157350
                                                         0.832382      -0.853528
                                                         0.352316       0.146068
                                                         0.142977       0.153978
                                                         0.046761       0.000658

                          1       3    4s               12.015955       1.228006
                                                         5.108150       1.271453
                                                         2.048398      -0.537390
                                                         0.832382      -1.759282
                                                         0.352316       1.533697
                                                         0.142977      -0.562509
                                                         0.046761       0.081954

                          1       4    3px              12.015955       1.192141
                                                         5.108150       1.354170
                                                         2.048398       0.897267
                                                         0.832382       0.408839
                                                         0.352316       0.116648
                                                         0.142977       0.022184
                                                         0.046761       0.000308
                          1       4    3py              12.015955       1.192141
                                                         5.108150       1.354170
                                                         2.048398       0.897267
                                                         0.832382       0.408839
                                                         0.352316       0.116648
                                                         0.142977       0.022184
                                                         0.046761       0.000308
                          1       4    3pz              12.015955       1.192141
                                                         5.108150       1.354170
                                                         2.048398       0.897267
                                                         0.832382       0.408839
                                                         0.352316       0.116648
                                                         0.142977       0.022184
                                                         0.046761       0.000308

                          1       5    4px              12.015955      -1.062381
                                                         5.108150      -1.285791
                                                         2.048398      -0.727000
                                                         0.832382      -0.522764
                                                         0.352316       0.182681
                                                         0.142977       0.087560
                                                         0.046761       0.000981
                          1       5    4py              12.015955      -1.062381
                                                         5.108150      -1.285791
                                                         2.048398      -0.727000
                                                         0.832382      -0.522764
                                                         0.352316       0.182681
                                                         0.142977       0.087560
                                                         0.046761       0.000981
                          1       5    4pz              12.015955      -1.062381
                                                         5.108150      -1.285791
                                                         2.048398      -0.727000
                                                         0.832382      -0.522764
                                                         0.352316       0.182681
                                                         0.142977       0.087560
                                                         0.046761       0.000981

                          1       6    5px              12.015955      -0.063722
                                                         5.108150       0.363638
                                                         2.048398       0.015152
                                                         0.832382      -0.083580
                                                         0.352316       0.692078
                                                         0.142977      -0.184312
                                                         0.046761       0.007664
                          1       6    5py              12.015955      -0.063722
                                                         5.108150       0.363638
                                                         2.048398       0.015152
                                                         0.832382      -0.083580
                                                         0.352316       0.692078
                                                         0.142977      -0.184312
                                                         0.046761       0.007664
                          1       6    5pz              12.015955      -0.063722
                                                         5.108150       0.363638
                                                         2.048398       0.015152
                                                         0.832382      -0.083580
                                                         0.352316       0.692078
                                                         0.142977      -0.184312
                                                         0.046761       0.007664

                          1       7    4dx2             12.015955       1.125955
                                                         5.108150       1.160468
                                                         2.048398       0.999335
                                                         0.832382       0.756334
                                                         0.352316       0.048604
                                                         0.142977       0.010378
                                                         0.046761      -0.000027
                          1       7    4dxy             12.015955       1.950212
                                                         5.108150       2.009990
                                                         2.048398       1.730899
                                                         0.832382       1.310009
                                                         0.352316       0.084185
                                                         0.142977       0.017974
                                                         0.046761      -0.000046
                          1       7    4dxz             12.015955       1.950212
                                                         5.108150       2.009990
                                                         2.048398       1.730899
                                                         0.832382       1.310009
                                                         0.352316       0.084185
                                                         0.142977       0.017974
                                                         0.046761      -0.000046
                          1       7    4dy2             12.015955       1.125955
                                                         5.108150       1.160468
                                                         2.048398       0.999335
                                                         0.832382       0.756334
                                                         0.352316       0.048604
                                                         0.142977       0.010378
                                                         0.046761      -0.000027
                          1       7    4dyz             12.015955       1.950212
                                                         5.108150       2.009990
                                                         2.048398       1.730899
                                                         0.832382       1.310009
                                                         0.352316       0.084185
                                                         0.142977       0.017974
                                                         0.046761      -0.000046
                          1       7    4dz2             12.015955       1.125955
                                                         5.108150       1.160468
                                                         2.048398       0.999335
                                                         0.832382       0.756334
                                                         0.352316       0.048604
                                                         0.142977       0.010378
                                                         0.046761      -0.000027

                          1       8    5dx2             12.015955      -2.135425
                                                         5.108150       0.581743
                                                         2.048398      -1.302492
                                                         0.832382       0.098118
                                                         0.352316       0.292085
                                                         0.142977      -0.022029
                                                         0.046761      -0.003795
                          1       8    5dxy             12.015955      -3.698665
                                                         5.108150       1.007608
                                                         2.048398      -2.255983
                                                         0.832382       0.169945
                                                         0.352316       0.505906
                                                         0.142977      -0.038155
                                                         0.046761      -0.006574
                          1       8    5dxz             12.015955      -3.698665
                                                         5.108150       1.007608
                                                         2.048398      -2.255983
                                                         0.832382       0.169945
                                                         0.352316       0.505906
                                                         0.142977      -0.038155
                                                         0.046761      -0.006574
                          1       8    5dy2             12.015955      -2.135425
                                                         5.108150       0.581743
                                                         2.048398      -1.302492
                                                         0.832382       0.098118
                                                         0.352316       0.292085
                                                         0.142977      -0.022029
                                                         0.046761      -0.003795
                          1       8    5dyz             12.015955      -3.698665
                                                         5.108150       1.007608
                                                         2.048398      -2.255983
                                                         0.832382       0.169945
                                                         0.352316       0.505906
                                                         0.142977      -0.038155
                                                         0.046761      -0.006574
                          1       8    5dz2             12.015955      -2.135425
                                                         5.108150       0.581743
                                                         2.048398      -1.302492
                                                         0.832382       0.098118
                                                         0.352316       0.292085
                                                         0.142977      -0.022029
                                                         0.046761      -0.003795

     Potential information for                                       GTH-BLYP-q6

       Description:                       Goedecker-Teter-Hutter pseudopotential
                                           Goedecker et al., PRB 54, 1703 (1996)
                                          Hartwigsen et al., PRB 58, 3641 (1998)
                                                      Krack, TCA 114, 145 (2005)

       Gaussian exponent of the core charge distribution:               8.438331
       Electronic configuration (s p d ...):                               2   4

       Parameters of the local part of the GTH pseudopotential:

                          rloc        C1          C2          C3          C4
                        0.243420  -16.991892    2.566142

       Parameters of the non-local part of the GTH pseudopotential:

                   l      r(l)      h(i,j,l)

                   0    0.220831   18.388851
                   1    0.217201

  2. Atomic kind: H                                     Number of atoms:     250

     Orbital basis set information for                          TZV2P-MOLOPT-GTH

       Number of orbital shell sets:                                           1
       Number of orbital shells:                                               5
       Number of primitive Cartesian functions:                                7
       Number of Cartesian basis functions:                                    9
       Number of spherical basis functions:                                    9

       Normalised Cartesian orbitals:

                        Set   Shell   Orbital            Exponent    Coefficient

                          1       1    2s               11.478000       0.129129
                                                         3.700759       0.177012
                                                         1.446884       0.141285
                                                         0.716815       0.245670
                                                         0.247919       0.094768
                                                         0.066918       0.004062
                                                         0.021708      -0.000053

                          1       2    3s               11.478000      -0.079256
                                                         3.700759      -0.152992
                                                         1.446884       0.015066
                                                         0.716815      -0.331234
                                                         0.247919       0.210690
                                                         0.066918       0.058630
                                                         0.021708      -0.003429

                          1       3    4s               11.478000      -0.246880
                                                         3.700759       0.023016
                                                         1.446884      -1.109374
                                                         0.716815       1.524652
                                                         0.247919      -0.227968
                                                         0.066918      -0.037343
                                                         0.021708       0.005696

                          1       4    3px              11.478000       0.325290
                                                         3.700759       0.187466
                                                         1.446884       0.443300
                                                         0.716815       0.267738
                                                         0.247919       0.088285
                                                         0.066918       0.019092
                                                         0.021708       0.000629
                          1       4    3py              11.478000       0.325290
                                                         3.700759       0.187466
                                                         1.446884       0.443300
                                                         0.716815       0.267738
                                                         0.247919       0.088285
                                                         0.066918       0.019092
                                                         0.021708       0.000629
                          1       4    3pz              11.478000       0.325290
                                                         3.700759       0.187466
                                                         1.446884       0.443300
                                                         0.716815       0.267738
                                                         0.247919       0.088285
                                                         0.066918       0.019092
                                                         0.021708       0.000629

                          1       5    4px              11.478000      -1.727188
                                                         3.700759      -0.598393
                                                         1.446884      -3.813128
                                                         0.716815       1.901151
                                                         0.247919      -0.262425
                                                         0.066918       0.006339
                                                         0.021708       0.007345
                          1       5    4py              11.478000      -1.727188
                                                         3.700759      -0.598393
                                                         1.446884      -3.813128
                                                         0.716815       1.901151
                                                         0.247919      -0.262425
                                                         0.066918       0.006339
                                                         0.021708       0.007345
                          1       5    4pz              11.478000      -1.727188
                                                         3.700759      -0.598393
                                                         1.446884      -3.813128
                                                         0.716815       1.901151
                                                         0.247919      -0.262425
                                                         0.066918       0.006339
                                                         0.021708       0.007345

     Potential information for                                       GTH-BLYP-q1

       Description:                       Goedecker-Teter-Hutter pseudopotential
                                           Goedecker et al., PRB 54, 1703 (1996)
                                          Hartwigsen et al., PRB 58, 3641 (1998)
                                                      Krack, TCA 114, 145 (2005)

       Gaussian exponent of the core charge distribution:              12.500000
       Electronic configuration (s p d ...):                                   1

       Parameters of the local part of the GTH pseudopotential:

                          rloc        C1          C2          C3          C4
                        0.200000   -4.195961    0.730498


 MOLECULE KIND INFORMATION

     1. Molecule kind: H2O                       Number of atoms:              3
                     Atom         Atomic kind name
                        1                        O
                        2                        H
                        3                        H

        The name was automatically generated: F
        Number of molecules:    125
        Molecule list:                1         2         3         4         5
                                      6         7         8         9        10
                                     11        12        13        14        15
                                     16        17        18        19        20
                                     21        22        23        24        25
                                     26        27        28        29        30
                                     31        32        33        34        35
                                     36        37        38        39        40
                                     41        42        43        44        45
                                     46        47        48        49        50
                                     51        52        53        54        55
                                     56        57        58        59        60
                                     61        62        63        64        65
                                     66        67        68        69        70
                                     71        72        73        74        75
                                     76        77        78        79        80
                                     81        82        83        84        85
                                     86        87        88        89        90
                                     91        92        93        94        95
                                     96        97        98        99       100
                                    101       102       103       104       105
                                    106       107       108       109       110
                                    111       112       113       114       115
                                    116       117       118       119       120
                                    121       122       123       124       125
        Number of bonds:            2
        Number of bends:            1
        Number of Urey-Bradley:     1


 MOLECULE KIND SET INFORMATION               Total Number of bonds:          250
                                             Total Number of bends:          125
                                             Total Number of Urey-Bradley:   125
                                             Total Number of torsions:         0
                                             Total Number of improper:         0
                                              Total Number of opbends:         0


 TOTAL NUMBERS AND MAXIMUM NUMBERS

  Total number of            - Atomic kinds:                                   2
                             - Atoms:                                        375
                             - Shell sets:                                   375
                             - Shells:                                      2250
                             - Primitive Cartesian functions:               2625
                             - Cartesian basis functions:                   5250
                             - Spherical basis functions:                   5000

  Maximum angular momentum of- Orbital basis functions:                        2
                             - Local part of the GTH pseudopotential:          2
                             - Non-local part of the GTH pseudopotential:      0


 MODULE QUICKSTEP:  ATOMIC COORDINATES IN angstrom

  Atom  Kind  Element       X           Y           Z          Z(eff)       Mass

       1     1 O    8    2.014019    1.546853    1.491011      6.00      15.9994
       2     2 H    1    1.590072    1.707336    2.376166      1.00       1.0079
       3     2 H    1    1.378258    1.737748    0.726923      1.00       1.0079
       4     1 O    8    7.840216    2.597728   14.791084      6.00      15.9994
       5     2 H    1    8.212527    1.712740   14.597721      1.00       1.0079
       6     2 H    1    8.509076    3.284013   14.537234      1.00       1.0079
       7     1 O    8    3.153534    6.153651   10.823853      6.00      15.9994
       8     2 H    1    3.664876    6.731434   10.269802      1.00       1.0079
       9     2 H    1    3.875842    5.741136   11.339570      1.00       1.0079
      10     1 O    8    4.526149   15.099023   14.163454      6.00      15.9994
      11     2 H    1    4.743430   15.897644   14.585328      1.00       1.0079
      12     2 H    1    3.539796   15.031512   14.486984      1.00       1.0079
      13     1 O    8    7.946143    9.525636    4.973882      6.00      15.9994
      14     2 H    1    8.978796    9.353833    4.938361      1.00       1.0079
      15     2 H    1    7.784352   10.494461    5.306417      1.00       1.0079
      16     1 O    8    1.648017    4.967980    8.046019      6.00      15.9994
      17     2 H    1    1.153317    4.659665    7.249393      1.00       1.0079
      18     2 H    1    1.456390    5.913978    8.253349      1.00       1.0079
      19     1 O    8    4.205545    6.363190    7.019501      6.00      15.9994
      20     2 H    1    4.479832    5.454809    6.958865      1.00       1.0079
      21     2 H    1    4.950856    6.940570    6.505051      1.00       1.0079
      22     1 O    8    6.023362   10.419561    2.661381      6.00      15.9994
      23     2 H    1    5.398917   11.295896    2.788294      1.00       1.0079
      24     2 H    1    6.515061   10.229808    3.442024      1.00       1.0079
      25     1 O    8    5.568295    2.713089   13.500990      6.00      15.9994
      26     2 H    1    4.824175    2.716832   14.149209      1.00       1.0079
      27     2 H    1    6.450769    2.605617   13.944806      1.00       1.0079
      28     1 O    8   13.662599    3.438442    8.363711      6.00      15.9994
      29     2 H    1   13.230028    2.694342    8.847506      1.00       1.0079
      30     2 H    1   14.525152    3.556281    8.839573      1.00       1.0079
      31     1 O    8   14.624190   14.694686    4.081523      6.00      15.9994
      32     2 H    1   13.663932   14.694026    4.212403      1.00       1.0079
      33     2 H    1   14.778558   14.972701    3.129899      1.00       1.0079
      34     1 O    8    7.584961   12.771595   14.844751      6.00      15.9994
      35     2 H    1    7.852198   11.909980   14.421435      1.00       1.0079
      36     2 H    1    6.608943   12.733310   14.932016      1.00       1.0079
      37     1 O    8    6.291473    4.719176    9.205303      6.00      15.9994
      38     2 H    1    5.434316    4.362728    8.783720      1.00       1.0079
      39     2 H    1    6.248982    5.667294    9.378743      1.00       1.0079
      40     1 O    8   13.129674   13.659815    0.255257      6.00      15.9994
      41     2 H    1   13.608883   14.472071    0.611383      1.00       1.0079
      42     2 H    1   13.050214   13.115067    1.046453      1.00       1.0079
      43     1 O    8   10.085553    5.646167    9.021067      6.00      15.9994
      44     2 H    1   10.924169    5.766798    8.412854      1.00       1.0079
      45     2 H    1    9.517076    4.929753    8.516354      1.00       1.0079
      46     1 O    8    4.384414   12.432477    3.189382      6.00      15.9994
      47     2 H    1    4.309532   11.810633    3.967357      1.00       1.0079
      48     2 H    1    3.762792   11.937260    2.553265      1.00       1.0079
      49     1 O    8    8.465386    7.409835    7.493469      6.00      15.9994
      50     2 H    1    9.053664    6.788303    7.887369      1.00       1.0079
      51     2 H    1    8.331473    7.244846    6.595276      1.00       1.0079
      52     1 O    8   10.822757   11.759899    8.527459      6.00      15.9994
      53     2 H    1    9.950684   11.279038    8.462347      1.00       1.0079
      54     2 H    1   10.787507   12.190760    9.348383      1.00       1.0079
      55     1 O    8    0.358418    5.768290   13.569435      6.00      15.9994
      56     2 H    1    0.183050    5.591613   14.557027      1.00       1.0079
      57     2 H    1   -0.384704    5.276141   13.107995      1.00       1.0079
      58     1 O    8   13.073118    4.054794    0.966266      6.00      15.9994
      59     2 H    1   12.918256    3.555761    1.796289      1.00       1.0079
      60     2 H    1   14.035013    4.290911    0.943094      1.00       1.0079
      61     1 O    8   10.624946   11.626891   12.993488      6.00      15.9994
      62     2 H    1   11.450817   11.111387   13.198894      1.00       1.0079
      63     2 H    1   10.786507   12.226010   12.177963      1.00       1.0079
      64     1 O    8    3.176552    0.676898    9.598919      6.00      15.9994
      65     2 H    1    3.742681    1.458065    9.676617      1.00       1.0079
      66     2 H    1    3.654037    0.169916    8.911102      1.00       1.0079
      67     1 O    8    5.471842   10.198287   13.372956      6.00      15.9994
      68     2 H    1    6.454127   10.268001   13.309144      1.00       1.0079
      69     2 H    1    5.175089    9.309944   13.583739      1.00       1.0079
      70     1 O    8    0.171764    3.657603    6.225789      6.00      15.9994
      71     2 H    1    0.256550    3.398856    5.291268      1.00       1.0079
      72     2 H    1   -0.568814    3.172943    6.596523      1.00       1.0079
      73     1 O    8   15.311887   11.812030   11.009961      6.00      15.9994
      74     2 H    1   15.431229   10.920279   11.520086      1.00       1.0079
      75     2 H    1   15.880459   12.423864   11.518760      1.00       1.0079
      76     1 O    8    7.830129    2.525431    5.424396      6.00      15.9994
      77     2 H    1    8.635602    2.594460    4.928308      1.00       1.0079
      78     2 H    1    7.120667    3.088965    5.066893      1.00       1.0079
      79     1 O    8    4.536369   14.180648   11.430653      6.00      15.9994
      80     2 H    1    4.261244   14.436277   12.353883      1.00       1.0079
      81     2 H    1    4.102169   14.894181   10.907984      1.00       1.0079
      82     1 O    8    2.263312   13.403466    9.395339      6.00      15.9994
      83     2 H    1    2.880030   13.975840    8.914023      1.00       1.0079
      84     2 H    1    1.464675   13.257623    8.759403      1.00       1.0079
      85     1 O    8   11.450734    6.186805    0.431026      6.00      15.9994
      86     2 H    1   11.966146    5.373274    0.749261      1.00       1.0079
      87     2 H    1   11.880797    6.598535   -0.322143      1.00       1.0079
      88     1 O    8    2.876567   11.485294    1.124533      6.00      15.9994
      89     2 H    1    3.224151   10.517198    1.066742      1.00       1.0079
      90     2 H    1    3.462555   11.949233    0.428044      1.00       1.0079
      91     1 O    8    5.051217    5.217617   12.428159      6.00      15.9994
      92     2 H    1    5.067026    4.405569   12.988104      1.00       1.0079
      93     2 H    1    5.998236    5.568339   12.356640      1.00       1.0079
      94     1 O    8    8.496731    3.787154    8.025431      6.00      15.9994
      95     2 H    1    8.207419    3.446774    7.128358      1.00       1.0079
      96     2 H    1    7.710038    4.106390    8.473409      1.00       1.0079
      97     1 O    8    2.996875    4.081217    4.149368      6.00      15.9994
      98     2 H    1    3.064038    4.690243    4.856022      1.00       1.0079
      99     2 H    1    2.784047    4.593102    3.383922      1.00       1.0079
     100     1 O    8    8.865136    9.870740    8.992947      6.00      15.9994
     101     2 H    1    7.902447    9.947412    9.326834      1.00       1.0079
     102     2 H    1    8.897579    9.112459    8.335798      1.00       1.0079
     103     1 O    8    9.602823    4.738056   14.599399      6.00      15.9994
     104     2 H    1   10.146757    5.379721   15.129521      1.00       1.0079
     105     2 H    1   10.282283    4.000138   14.591691      1.00       1.0079
     106     1 O    8    1.820264   10.103152    9.725014      6.00      15.9994
     107     2 H    1    1.039854   10.607795    9.941734      1.00       1.0079
     108     2 H    1    2.579315   10.254475   10.335000      1.00       1.0079
     109     1 O    8    8.477478    0.036861   13.750685      6.00      15.9994
     110     2 H    1    9.338791   -0.384346   13.989278      1.00       1.0079
     111     2 H    1    7.718014   -0.530528   14.056241      1.00       1.0079
     112     1 O    8    9.363000   14.269373    5.016024      6.00      15.9994
     113     2 H    1    8.580860   14.776153    5.410890      1.00       1.0079
     114     2 H    1    9.328787   14.482025    4.082063      1.00       1.0079
     115     1 O    8   14.116755    7.430930   10.091599      6.00      15.9994
     116     2 H    1   13.582819    6.612108   10.195626      1.00       1.0079
     117     2 H    1   13.429909    8.122588    9.881840      1.00       1.0079
     118     1 O    8    4.016750   10.806753    5.526797      6.00      15.9994
     119     2 H    1    3.094211   10.760091    5.789843      1.00       1.0079
     120     2 H    1    4.408319   11.288338    6.296075      1.00       1.0079
     121     1 O    8    0.782375    2.549237    3.762752      6.00      15.9994
     122     2 H    1    1.565482    3.109633    3.899108      1.00       1.0079
     123     2 H    1    0.840463    1.857222    4.396574      1.00       1.0079
     124     1 O    8   11.437587   12.069567    4.073539      6.00      15.9994
     125     2 H    1   12.338263   11.864777    3.633114      1.00       1.0079
     126     2 H    1   11.639050   12.678114    4.786048      1.00       1.0079
     127     1 O    8    9.567402    1.293036    8.362091      6.00      15.9994
     128     2 H    1    9.274875    2.196244    8.470108      1.00       1.0079
     129     2 H    1    8.641159    0.874637    8.329680      1.00       1.0079
     130     1 O    8    2.998342    5.389406    1.351518      6.00      15.9994
     131     2 H    1    3.525836    4.541384    1.151646      1.00       1.0079
     132     2 H    1    3.586963    5.960872    1.862547      1.00       1.0079
     133     1 O    8   14.367242   14.251099   10.191506      6.00      15.9994
     134     2 H    1   14.745785   13.369031   10.054698      1.00       1.0079
     135     2 H    1   15.009229   15.013186   10.070516      1.00       1.0079
     136     1 O    8   10.347013    7.867616   10.752992      6.00      15.9994
     137     2 H    1   10.183507    7.067352   10.129708      1.00       1.0079
     138     2 H    1    9.764702    8.629837   10.420544      1.00       1.0079
     139     1 O    8    0.189328   12.130565   15.232833      6.00      15.9994
     140     2 H    1    0.397127   11.517096   15.929925      1.00       1.0079
     141     2 H    1   -0.745533   12.411865   15.300184      1.00       1.0079
     142     1 O    8   12.900406    9.264791    0.795317      6.00      15.9994
     143     2 H    1   11.937273    9.227602    1.117818      1.00       1.0079
     144     2 H    1   12.904437    9.618739   -0.103822      1.00       1.0079
     145     1 O    8   13.153571    2.494387    3.104576      6.00      15.9994
     146     2 H    1   14.112711    2.316472    3.110487      1.00       1.0079
     147     2 H    1   12.883058    3.011488    3.921344      1.00       1.0079
     148     1 O    8    8.713624   14.303046   11.248689      6.00      15.9994
     149     2 H    1    8.620021   15.000727   11.936467      1.00       1.0079
     150     2 H    1    8.056172   13.576443   11.597599      1.00       1.0079
     151     1 O    8   13.374977   11.583355    2.261916      6.00      15.9994
     152     2 H    1   14.134632   11.010278    2.731564      1.00       1.0079
     153     2 H    1   13.389327   11.085636    1.457917      1.00       1.0079
     154     1 O    8    3.163620    8.620168    0.894778      6.00      15.9994
     155     2 H    1    3.453931    8.248023    1.739070      1.00       1.0079
     156     2 H    1    3.777853    8.133031    0.273608      1.00       1.0079
     157     1 O    8    1.068284    7.499757    8.881172      6.00      15.9994
     158     2 H    1    0.373592    7.473888    9.559578      1.00       1.0079
     159     2 H    1    1.726295    8.193126    9.115498      1.00       1.0079
     160     1 O    8    8.268277   11.811781    1.812863      6.00      15.9994
     161     2 H    1    7.487831   11.204924    1.954281      1.00       1.0079
     162     2 H    1    8.232723   12.103286    0.822005      1.00       1.0079
     163     1 O    8    9.995791    5.649012    4.825019      6.00      15.9994
     164     2 H    1    9.790894    6.154996    4.039836      1.00       1.0079
     165     2 H    1   10.100266    4.744953    4.453872      1.00       1.0079
     166     1 O    8    0.437267    9.505774    0.001415      6.00      15.9994
     167     2 H    1    0.048171    8.785239    0.569802      1.00       1.0079
     168     2 H    1    1.420500    9.348932    0.235771      1.00       1.0079
     169     1 O    8   10.505799   13.786348   14.550016      6.00      15.9994
     170     2 H    1   10.373134   12.932406   14.006991      1.00       1.0079
     171     2 H    1   11.391184   13.771908   15.039535      1.00       1.0079
     172     1 O    8    7.376392   12.012086    5.578953      6.00      15.9994
     173     2 H    1    8.206121   12.275351    5.944638      1.00       1.0079
     174     2 H    1    7.183011   12.470174    4.702238      1.00       1.0079
     175     1 O    8   12.842044    8.377394    6.205937      6.00      15.9994
     176     2 H    1   12.555936    7.456023    6.293164      1.00       1.0079
     177     2 H    1   12.728622    8.955909    7.010504      1.00       1.0079
     178     1 O    8    0.600371   12.379146    4.541241      6.00      15.9994
     179     2 H    1    0.433306   13.291475    4.175774      1.00       1.0079
     180     2 H    1    0.420176   12.421095    5.472257      1.00       1.0079
     181     1 O    8   11.883242    6.003105    7.119875      6.00      15.9994
     182     2 H    1   12.653964    5.314202    7.173311      1.00       1.0079
     183     2 H    1   11.357271    5.686051    6.320539      1.00       1.0079
     184     1 O    8    2.294721   11.071446   13.587874      6.00      15.9994
     185     2 H    1    1.528656   11.199233   14.206482      1.00       1.0079
     186     2 H    1    2.748849   10.216778   13.816091      1.00       1.0079
     187     1 O    8    7.250633    3.978806    1.766033      6.00      15.9994
     188     2 H    1    6.898899    3.349523    1.095579      1.00       1.0079
     189     2 H    1    6.924434    4.881640    1.554555      1.00       1.0079
     190     1 O    8    8.162526    7.451384   14.151222      6.00      15.9994
     191     2 H    1    7.482954    7.286568   14.804511      1.00       1.0079
     192     2 H    1    8.883940    6.789598   14.347772      1.00       1.0079
     193     1 O    8   12.582098    5.401567   11.119984      6.00      15.9994
     194     2 H    1   13.263646    4.677332   11.490342      1.00       1.0079
     195     2 H    1   11.768563    4.933868   10.813617      1.00       1.0079
     196     1 O    8    0.435369    1.742288   14.750453      6.00      15.9994
     197     2 H    1    0.875661    2.458809   14.235230      1.00       1.0079
     198     2 H    1    0.754358    0.851835   14.536239      1.00       1.0079
     199     1 O    8    9.589959    3.386675    3.349749      6.00      15.9994
     200     2 H    1    8.774439    3.635159    2.760669      1.00       1.0079
     201     2 H    1    9.921584    2.515745    3.081656      1.00       1.0079
     202     1 O    8    0.338986    3.388685   10.247344      6.00      15.9994
     203     2 H    1    0.974766    4.024794    9.882272      1.00       1.0079
     204     2 H    1    0.561215    2.462667    9.919651      1.00       1.0079
     205     1 O    8    0.149539    5.297890    0.826283      6.00      15.9994
     206     2 H    1    0.040982    6.127330    1.276069      1.00       1.0079
     207     2 H    1    1.040286    4.957662    1.008748      1.00       1.0079
     208     1 O    8   12.952112   10.002391   13.815921      6.00      15.9994
     209     2 H    1   13.901479   10.004982   13.631022      1.00       1.0079
     210     2 H    1   12.721484    9.055089   13.874919      1.00       1.0079
     211     1 O    8   15.507152    7.951884    6.480152      6.00      15.9994
     212     2 H    1   15.747031    7.572011    7.451447      1.00       1.0079
     213     2 H    1   14.495965    7.992195    6.524875      1.00       1.0079
     214     1 O    8   12.817430    3.968823    5.549711      6.00      15.9994
     215     2 H    1   12.218271    3.453143    6.111441      1.00       1.0079
     216     2 H    1   13.729187    4.010078    5.895073      1.00       1.0079
     217     1 O    8   12.853144    1.239364   12.848257      6.00      15.9994
     218     2 H    1   12.547173    1.335622   11.911764      1.00       1.0079
     219     2 H    1   12.797195    0.264470   12.928342      1.00       1.0079
     220     1 O    8    3.874480    7.584597    3.204420      6.00      15.9994
     221     2 H    1    4.659125    7.735236    3.791565      1.00       1.0079
     222     2 H    1    3.143712    7.301188    3.831768      1.00       1.0079
     223     1 O    8   15.249056    9.216646   12.000766      6.00      15.9994
     224     2 H    1   16.058119    8.647739   12.077584      1.00       1.0079
     225     2 H    1   14.774079    8.728824   11.336594      1.00       1.0079
     226     1 O    8    2.865002    0.166993    4.107760      6.00      15.9994
     227     2 H    1    2.881939   -0.782090    3.969796      1.00       1.0079
     228     2 H    1    3.314205    0.573116    3.378405      1.00       1.0079
     229     1 O    8    9.483178    7.152721    2.382880      6.00      15.9994
     230     2 H    1   10.035114    6.845504    1.691801      1.00       1.0079
     231     2 H    1    9.586836    8.077409    2.372481      1.00       1.0079
     232     1 O    8    5.790810    4.015179    4.204085      6.00      15.9994
     233     2 H    1    6.027118    3.957514    3.199215      1.00       1.0079
     234     2 H    1    4.907408    3.618820    4.311637      1.00       1.0079
     235     1 O    8    0.107631    9.953444    3.475258      6.00      15.9994
     236     2 H    1    0.129689   10.907736    3.731079      1.00       1.0079
     237     2 H    1    0.465818    9.431840    4.187624      1.00       1.0079
     238     1 O    8    7.290737    0.188737    9.366415      6.00      15.9994
     239     2 H    1    7.846107   -0.353471    9.885928      1.00       1.0079
     240     2 H    1    6.852322    0.857926    9.950482      1.00       1.0079
     241     1 O    8    1.830342    3.531580   13.216593      6.00      15.9994
     242     2 H    1    1.757785    3.517254   12.169527      1.00       1.0079
     243     2 H    1    1.442985    4.410466   13.520996      1.00       1.0079
     244     1 O    8   14.021210    0.459042    1.504493      6.00      15.9994
     245     2 H    1   13.325944    0.995993    1.950782      1.00       1.0079
     246     2 H    1   14.236777    0.992452    0.709245      1.00       1.0079
     247     1 O    8    6.878616    7.126341   11.753614      6.00      15.9994
     248     2 H    1    6.791636    7.982498   11.351597      1.00       1.0079
     249     2 H    1    7.335906    7.356304   12.582155      1.00       1.0079
     250     1 O    8   12.296919    9.302723    9.207248      6.00      15.9994
     251     2 H    1   12.052433   10.197375    8.974079      1.00       1.0079
     252     2 H    1   11.643930    8.974148    9.820007      1.00       1.0079
     253     1 O    8   11.290219    2.584504   14.762079      6.00      15.9994
     254     2 H    1   11.601865    1.928109   14.154521      1.00       1.0079
     255     2 H    1   12.072849    2.953157   15.169208      1.00       1.0079
     256     1 O    8   12.291092    7.168860   13.236963      6.00      15.9994
     257     2 H    1   11.755245    7.689891   12.580787      1.00       1.0079
     258     2 H    1   12.596080    6.354888   12.719895      1.00       1.0079
     259     1 O    8   10.544410    9.851037    1.863591      6.00      15.9994
     260     2 H    1   10.629309    9.712729    2.820108      1.00       1.0079
     261     2 H    1   10.094252   10.741491    1.782311      1.00       1.0079
     262     1 O    8    8.291559   10.442667   13.564076      6.00      15.9994
     263     2 H    1    9.180031   10.760099   13.286410      1.00       1.0079
     264     2 H    1    8.385220    9.445163   13.822891      1.00       1.0079
     265     1 O    8    6.910281   13.693196    3.428587      6.00      15.9994
     266     2 H    1    7.517675   13.251963    2.803650      1.00       1.0079
     267     2 H    1    5.993035   13.333130    3.282433      1.00       1.0079
     268     1 O    8    1.818407   10.072874    6.864272      6.00      15.9994
     269     2 H    1    1.091021    9.394422    6.744777      1.00       1.0079
     270     2 H    1    1.944323   10.142510    7.851135      1.00       1.0079
     271     1 O    8    5.969101    2.089265   10.948252      6.00      15.9994
     272     2 H    1    5.613137    2.346576   11.876349      1.00       1.0079
     273     2 H    1    6.144088    2.941028   10.523923      1.00       1.0079
     274     1 O    8    5.491890   11.837036    7.604309      6.00      15.9994
     275     2 H    1    5.352211   12.754520    7.856637      1.00       1.0079
     276     2 H    1    6.129656   11.869363    6.805026      1.00       1.0079
     277     1 O    8    2.185215    7.822492   12.890064      6.00      15.9994
     278     2 H    1    2.265247    7.414162   11.942436      1.00       1.0079
     279     2 H    1    1.463763    7.376326   13.369311      1.00       1.0079
     280     1 O    8    7.979243   15.209768    1.079416      6.00      15.9994
     281     2 H    1    8.324873   14.521106    0.478536      1.00       1.0079
     282     2 H    1    8.688739   15.855281    1.297990      1.00       1.0079
     283     1 O    8    5.510052    8.402479    5.647174      6.00      15.9994
     284     2 H    1    4.908350    9.164348    5.492591      1.00       1.0079
     285     2 H    1    6.400431    8.760661    5.445917      1.00       1.0079
     286     1 O    8   14.229959    3.729216   12.487714      6.00      15.9994
     287     2 H    1   13.964517    2.822974   12.739874      1.00       1.0079
     288     2 H    1   14.822767    3.596509   11.792708      1.00       1.0079
     289     1 O    8   10.186931    0.826533    2.265810      6.00      15.9994
     290     2 H    1   10.625329    1.202188    1.516176      1.00       1.0079
     291     2 H    1   10.415358   -0.115544    2.202704      1.00       1.0079
     292     1 O    8    4.271285    7.984989    9.156925      6.00      15.9994
     293     2 H    1    4.256248    7.525084    8.243195      1.00       1.0079
     294     2 H    1    4.911284    8.765426    9.248481      1.00       1.0079
     295     1 O    8    2.103377    6.742511    5.177334      6.00      15.9994
     296     2 H    1    1.278130    7.145838    5.512254      1.00       1.0079
     297     2 H    1    2.732876    6.769419    5.965256      1.00       1.0079
     298     1 O    8    4.870791   14.634876    8.281337      6.00      15.9994
     299     2 H    1    5.307529   15.040641    7.497831      1.00       1.0079
     300     2 H    1    5.577060   14.588121    8.960021      1.00       1.0079
     301     1 O    8   14.610888    0.670275    6.847303      6.00      15.9994
     302     2 H    1   13.635940    0.840832    6.895776      1.00       1.0079
     303     2 H    1   14.774056   -0.004536    6.140951      1.00       1.0079
     304     1 O    8    6.011262   10.183869    9.795901      6.00      15.9994
     305     2 H    1    5.322969   10.575058   10.413874      1.00       1.0079
     306     2 H    1    5.931644   10.851021    9.077506      1.00       1.0079
     307     1 O    8   13.266066   13.916084   12.846205      6.00      15.9994
     308     2 H    1   13.913430   13.493366   13.445809      1.00       1.0079
     309     2 H    1   13.817823   13.897126   12.047995      1.00       1.0079
     310     1 O    8    4.642818    1.400493    5.675058      6.00      15.9994
     311     2 H    1    3.967302    0.824506    5.169812      1.00       1.0079
     312     2 H    1    5.471924    0.792581    5.795004      1.00       1.0079
     313     1 O    8    6.829112   15.395964    5.725775      6.00      15.9994
     314     2 H    1    7.313356   16.273516    5.573693      1.00       1.0079
     315     2 H    1    6.730413   14.918505    4.885522      1.00       1.0079
     316     1 O    8   12.485890    1.638354    9.780485      6.00      15.9994
     317     2 H    1   13.083289    0.812305    9.842752      1.00       1.0079
     318     2 H    1   11.591932    1.537548    9.399425      1.00       1.0079
     319     1 O    8    6.724848   12.524940   11.787536      6.00      15.9994
     320     2 H    1    6.547722   11.683311   11.272180      1.00       1.0079
     321     2 H    1    5.950020   13.189142   11.834816      1.00       1.0079
     322     1 O    8    6.630510    6.883262    1.398829      6.00      15.9994
     323     2 H    1    7.524326    7.007256    1.704729      1.00       1.0079
     324     2 H    1    6.123499    7.640621    1.759711      1.00       1.0079
     325     1 O    8   10.536685   13.665116    2.256055      6.00      15.9994
     326     2 H    1   10.918709   12.954448    2.854910      1.00       1.0079
     327     2 H    1    9.788187   13.242856    1.824957      1.00       1.0079
     328     1 O    8    4.002729    3.455890    7.947297      6.00      15.9994
     329     2 H    1    3.159620    3.880207    8.157485      1.00       1.0079
     330     2 H    1    3.899907    2.845353    7.150620      1.00       1.0079
     331     1 O    8   10.851263    9.655323    4.832088      6.00      15.9994
     332     2 H    1   11.088914   10.654293    4.804153      1.00       1.0079
     333     2 H    1   11.577886    9.274748    5.371825      1.00       1.0079
     334     1 O    8   11.859987    1.475570    6.727270      6.00      15.9994
     335     2 H    1   11.019933    1.445401    7.262062      1.00       1.0079
     336     2 H    1   11.891964    0.591906    6.299427      1.00       1.0079
     337     1 O    8    1.730145   13.354891   12.146632      6.00      15.9994
     338     2 H    1    2.174800   12.639397   12.621976      1.00       1.0079
     339     2 H    1    2.013457   13.368007   11.181752      1.00       1.0079
     340     1 O    8    5.438103    0.688531    2.130037      6.00      15.9994
     341     2 H    1    6.214382    0.228210    1.804088      1.00       1.0079
     342     2 H    1    5.116030    1.211777    1.394992      1.00       1.0079
     343     1 O    8   11.285866   13.283007   10.832488      6.00      15.9994
     344     2 H    1   10.559795   13.939237   10.994820      1.00       1.0079
     345     2 H    1   12.151233   13.348859   11.396855      1.00       1.0079
     346     1 O    8    0.260906   12.546984    7.366105      6.00      15.9994
     347     2 H    1    0.647160   11.690488    7.083372      1.00       1.0079
     348     2 H    1   -0.713216   12.513522    7.515640      1.00       1.0079
     349     1 O    8    4.627109    7.617889   13.816239      6.00      15.9994
     350     2 H    1    3.748419    7.714094   13.293308      1.00       1.0079
     351     2 H    1    5.021902    6.803469   13.441566      1.00       1.0079
     352     1 O    8    0.410455    0.756333    9.215101      6.00      15.9994
     353     2 H    1   -0.085083    0.933365    8.386913      1.00       1.0079
     354     2 H    1    1.371590    0.614907    9.085560      1.00       1.0079
     355     1 O    8   14.924488    7.866095    1.821363      6.00      15.9994
     356     2 H    1   15.386274    8.526171    2.439156      1.00       1.0079
     357     2 H    1   14.065244    8.284683    1.526961      1.00       1.0079
     358     1 O    8    4.067366   11.431232   11.276971      6.00      15.9994
     359     2 H    1    4.290300   12.442617   11.173641      1.00       1.0079
     360     2 H    1    4.431238   11.138959   12.169647      1.00       1.0079
     361     1 O    8    3.614384    2.945329   15.347606      6.00      15.9994
     362     2 H    1    2.960553    2.438908   15.866538      1.00       1.0079
     363     2 H    1    3.086128    3.305312   14.591321      1.00       1.0079
     364     1 O    8   12.033073   14.685018    5.343987      6.00      15.9994
     365     2 H    1   12.407521   14.143546    6.018956      1.00       1.0079
     366     2 H    1   11.056861   14.620133    5.298868      1.00       1.0079
     367     1 O    8    5.010548   12.339694   15.098801      6.00      15.9994
     368     2 H    1    4.891851   13.118962   14.526596      1.00       1.0079
     369     2 H    1    5.228068   11.582391   14.544524      1.00       1.0079
     370     1 O    8   13.165665   13.536022    7.842654      6.00      15.9994
     371     2 H    1   12.435186   13.033085    8.239793      1.00       1.0079
     372     2 H    1   13.558591   14.122960    8.626175      1.00       1.0079
     373     1 O    8    1.940989   14.582009   14.506716      6.00      15.9994
     374     2 H    1    1.520696   13.847794   14.978656      1.00       1.0079
     375     2 H    1    1.626783   14.421929   13.583367      1.00       1.0079



 PW_GRID: Information for grid number                                          1
 PW_GRID: Grid distributed over                                   128 processors
 PW_GRID: Real space group dimensions                                   128    1
 PW_GRID: the grid is blocked:                                                NO
 PW_GRID: Cutoff [a.u.]                                                    500.0
 PW_GRID: spherical cutoff:                                                   NO
 PW_GRID:   Bounds   1           -150     149                Points:         300
 PW_GRID:   Bounds   2           -150     149                Points:         300
 PW_GRID:   Bounds   3           -150     149                Points:         300
 PW_GRID: Volume element (a.u.^3)  0.9372E-03     Volume (a.u.^3)     25303.9229
 PW_GRID: Grid span                                                    FULLSPACE
 PW_GRID:   Distribution                         Average         Max         Min
 PW_GRID:   G-Vectors                           210937.5      211200      210900
 PW_GRID:   G-Rays                                 703.1         704         703
 PW_GRID:   Real Space Points                   210937.5      270000      180000

 PW_GRID: Information for grid number                                          2
 PW_GRID: Grid distributed over                                   128 processors
 PW_GRID: Real space group dimensions                                   128    1
 PW_GRID: the grid is blocked:                                                NO
 PW_GRID: Cutoff [a.u.]                                                    166.7
 PW_GRID: spherical cutoff:                                                   NO
 PW_GRID:   Bounds   1            -90      89                Points:         180
 PW_GRID:   Bounds   2            -90      89                Points:         180
 PW_GRID:   Bounds   3            -90      89                Points:         180
 PW_GRID: Volume element (a.u.^3)  0.4339E-02     Volume (a.u.^3)     25303.9229
 PW_GRID: Grid span                                                    FULLSPACE
 PW_GRID:   Distribution                         Average         Max         Min
 PW_GRID:   G-Vectors                            45562.5       45720       45360
 PW_GRID:   G-Rays                                 253.1         254         252
 PW_GRID:   Real Space Points                    45562.5       64800       32400

 PW_GRID: Information for grid number                                          3
 PW_GRID: Grid distributed over                                   128 processors
 PW_GRID: Real space group dimensions                                     8   16
 PW_GRID: the grid is blocked:                                                NO
 PW_GRID: Cutoff [a.u.]                                                     55.6
 PW_GRID: spherical cutoff:                                                   NO
 PW_GRID:   Bounds   1            -50      49                Points:         100
 PW_GRID:   Bounds   2            -50      49                Points:         100
 PW_GRID:   Bounds   3            -50      49                Points:         100
 PW_GRID: Volume element (a.u.^3)  0.2530E-01     Volume (a.u.^3)     25303.9229
 PW_GRID: Grid span                                                    FULLSPACE
 PW_GRID:   Distribution                         Average         Max         Min
 PW_GRID:   G-Vectors                             7812.5        7900        7700
 PW_GRID:   G-Rays                                  78.1          79          77
 PW_GRID:   Real Space Points                     7812.5        9100        7200

 PW_GRID: Information for grid number                                          4
 PW_GRID: Grid distributed over                                   128 processors
 PW_GRID: Real space group dimensions                                     8   16
 PW_GRID: the grid is blocked:                                                NO
 PW_GRID: Cutoff [a.u.]                                                     18.5
 PW_GRID: spherical cutoff:                                                   NO
 PW_GRID:   Bounds   1            -30      29                Points:          60
 PW_GRID:   Bounds   2            -30      29                Points:          60
 PW_GRID:   Bounds   3            -30      29                Points:          60
 PW_GRID: Volume element (a.u.^3)  0.1171         Volume (a.u.^3)     25303.9229
 PW_GRID: Grid span                                                    FULLSPACE
 PW_GRID:   Distribution                         Average         Max         Min
 PW_GRID:   G-Vectors                             1687.5        1740        1620
 PW_GRID:   G-Rays                                  28.1          29          27
 PW_GRID:   Real Space Points                     1687.5        1920        1260

 PW_GRID: Information for grid number                                          5
 PW_GRID: Grid distributed over                                   128 processors
 PW_GRID: Real space group dimensions                                     8   16
 PW_GRID: the grid is blocked:                                                NO
 PW_GRID: Cutoff [a.u.]                                                      6.2
 PW_GRID: spherical cutoff:                                                   NO
 PW_GRID:   Bounds   1            -18      17                Points:          36
 PW_GRID:   Bounds   2            -18      17                Points:          36
 PW_GRID:   Bounds   3            -18      17                Points:          36
 PW_GRID: Volume element (a.u.^3)  0.5424         Volume (a.u.^3)     25303.9229
 PW_GRID: Grid span                                                    FULLSPACE
 PW_GRID:   Distribution                         Average         Max         Min
 PW_GRID:   G-Vectors                              364.5         396         324
 PW_GRID:   G-Rays                                  10.1          11           9
 PW_GRID:   Real Space Points                      364.5         540         288

 RS_GRID: Information for grid number                                          1
 RS_GRID:   Bounds   1           -150     149                Points:         300
 RS_GRID:   Bounds   2           -150     149                Points:         300
 RS_GRID:   Bounds   3           -150     149                Points:         300
 RS_GRID: Real space distribution over                                  4 groups
 RS_GRID: Real space distribution along direction                              1
 RS_GRID: Border size                                                         20
 RS_GRID: Real space distribution over                                  4 groups
 RS_GRID: Real space distribution along direction                              2
 RS_GRID: Border size                                                         20
 RS_GRID: Real space distribution over                                  8 groups
 RS_GRID: Real space distribution along direction                              3
 RS_GRID: Border size                                                         20
 RS_GRID:   Distribution                         Average         Max         Min
 RS_GRID:   Planes                                 115.0         115         115
 RS_GRID:   Distribution                         Average         Max         Min
 RS_GRID:   Planes                                 115.0         115         115
 RS_GRID:   Distribution                         Average         Max         Min
 RS_GRID:   Planes                                  77.5          78          77

 RS_GRID: Information for grid number                                          2
 RS_GRID:   Bounds   1            -90      89                Points:         180
 RS_GRID:   Bounds   2            -90      89                Points:         180
 RS_GRID:   Bounds   3            -90      89                Points:         180
 RS_GRID: Real space distribution over                                  4 groups
 RS_GRID: Real space distribution along direction                              1
 RS_GRID: Border size                                                         18
 RS_GRID: Real space distribution over                                  4 groups
 RS_GRID: Real space distribution along direction                              2
 RS_GRID: Border size                                                         18
 RS_GRID: Real space distribution over                                  8 groups
 RS_GRID: Real space distribution along direction                              3
 RS_GRID: Border size                                                         18
 RS_GRID:   Distribution                         Average         Max         Min
 RS_GRID:   Planes                                  81.0          81          81
 RS_GRID:   Distribution                         Average         Max         Min
 RS_GRID:   Planes                                  81.0          81          81
 RS_GRID:   Distribution                         Average         Max         Min
 RS_GRID:   Planes                                  58.5          59          58

 RS_GRID: Information for grid number                                          3
 RS_GRID:   Bounds   1            -50      49                Points:         100
 RS_GRID:   Bounds   2            -50      49                Points:         100
 RS_GRID:   Bounds   3            -50      49                Points:         100
 RS_GRID: Real space fully replicated
 RS_GRID: Group size                                                           1

 RS_GRID: Information for grid number                                          4
 RS_GRID:   Bounds   1            -30      29                Points:          60
 RS_GRID:   Bounds   2            -30      29                Points:          60
 RS_GRID:   Bounds   3            -30      29                Points:          60
 RS_GRID: Real space fully replicated
 RS_GRID: Group size                                                           1

 RS_GRID: Information for grid number                                          5
 RS_GRID:   Bounds   1            -18      17                Points:          36
 RS_GRID:   Bounds   2            -18      17                Points:          36
[...]
 VAR1: |Q.X|:   0.17767238003050348     
 VAR1: |T0+Q.X|:   0.93827798926055950     

     Hotelling iter   1 1.00000000   0.100E+01       0.016      143.606
     Hotelling iter   2 1.00000000   0.354E+00       0.011      199.509
     Hotelling iter   3 1.00000000   0.842E-01       0.012      182.625
     Hotelling iter   4 1.00000000   0.811E-02       0.012      193.660
     Hotelling iter   5 1.00000000   0.108E-03       0.012      197.473
     Hotelling iter   6 1.00000000   0.265E-07       0.012      194.737
     Hotelling iter   7 1.00000000   0.308E-14       0.012      195.038
 Maximum norm of dE/dT:   6.58347220614252226E-004
 Grad orthogonality error:   5.21006024202513304E-005
 ....updating step direction....
 ....applying preconditioner....
 ....special case 1....
 Dir orthogonality error:   1.31678881367922942E-005
 ....final beta....  0.14930024959345956     
 Step orthogonality error:   1.69137970555743491E-005
 ALMO SCF CG    13   -363.119344765218  -0.902E-04   0.663E-03   0.122E-04     0.85433     1.452
 VAR1: |B*X|:   0.17784749974756472     
 VAR1: |Q.X|:   0.17784749974756472     
 VAR1: |T0+Q.X|:   0.93825389534847714     

     Hotelling iter   1 1.00000000   0.100E+01       0.012      193.502
     Hotelling iter   2 1.00000000   0.354E+00       0.012      191.429
     Hotelling iter   3 1.00000000   0.842E-01       0.012      190.329
     Hotelling iter   4 1.00000000   0.811E-02       0.012      188.400
     Hotelling iter   5 1.00000000   0.108E-03       0.011      197.663
     Hotelling iter   6 1.00000000   0.266E-07       0.012      187.825
     Hotelling iter   7 1.00000000   0.303E-14       0.012      196.249
 Maximum norm of dE/dT:   3.44129352070442229E-004
 Grad orthogonality error:   2.52488403629174333E-005
 ....updating step direction....
 ....applying preconditioner....
 ....special case 1....
 Dir orthogonality error:   6.53215784167083968E-006
 ....final beta....  0.22734148379612881     
 Step orthogonality error:   7.85168082104665916E-006
 ALMO SCF CG    14   -363.119358837573  -0.141E-04   0.345E-03   0.179E-02     0.89705     1.453
 VAR1: |B*X|:   0.17770479951350721     
 VAR1: |Q.X|:   0.17770479951350721     
 VAR1: |T0+Q.X|:   0.93824899603052447     

     Hotelling iter   1 1.00000000   0.100E+01       0.012      192.915
     Hotelling iter   2 1.00000000   0.354E+00       0.013      178.805
     Hotelling iter   3 1.00000000   0.842E-01       0.012      192.636
     Hotelling iter   4 1.00000000   0.811E-02       0.011      199.677
     Hotelling iter   5 1.00000000   0.108E-03       0.012      197.051
     Hotelling iter   6 1.00000000   0.266E-07       0.012      195.760
     Hotelling iter   7 1.00000000   0.302E-14       0.011      198.745
 Maximum norm of dE/dT:   1.40742830918471658E-004
 Grad orthogonality error:   5.43353411915089081E-006
 Step orthogonality error:   7.88896734202065542E-006
 ALMO SCF LS    15   -363.119362340611   0.000E+00   0.141E-03  -0.309E-01     0.05905     1.143
 VAR1: |B*X|:   0.17769540551566498     
 VAR1: |Q.X|:   0.17769540551566498     
 VAR1: |T0+Q.X|:   0.93824867350700103     

     Hotelling iter   1 1.00000000   0.100E+01       0.012      186.797
     Hotelling iter   2 1.00000000   0.354E+00       0.012      197.103
     Hotelling iter   3 1.00000000   0.842E-01       0.012      194.362
     Hotelling iter   4 1.00000000   0.811E-02       0.011      200.878
     Hotelling iter   5 1.00000000   0.108E-03       0.011      197.782
     Hotelling iter   6 1.00000000   0.266E-07       0.012      194.043
     Hotelling iter   7 1.00000000   0.303E-14       0.013      179.566
 Maximum norm of dE/dT:   1.72245348311590062E-004
 Grad orthogonality error:   5.05232594822753888E-006
 ....updating step direction....
 ....applying preconditioner....
 ....special case 1....
 Dir orthogonality error:   2.29933873954142407E-006
 ....final beta....  0.20802083997148638     
 Step orthogonality error:   3.92919076403208345E-006
 ALMO SCF CG    16   -363.119362354026  -0.352E-05   0.172E-03  -0.186E-06     1.00391     1.446
 VAR1: |B*X|:   0.17771191949789336     
 VAR1: |Q.X|:   0.17771191949789336     
 VAR1: |T0+Q.X|:   0.93825347360879807     

     Hotelling iter   1 1.00000000   0.100E+01       0.012      197.200
     Hotelling iter   2 1.00000000   0.354E+00       0.012      195.798
     Hotelling iter   3 1.00000000   0.842E-01       0.012      196.275
     Hotelling iter   4 1.00000000   0.811E-02       0.012      196.636
     Hotelling iter   5 1.00000000   0.108E-03       0.012      196.273
     Hotelling iter   6 1.00000000   0.266E-07       0.012      193.303
     Hotelling iter   7 1.00000000   0.309E-14       0.012      197.072
 Maximum norm of dE/dT:   1.18319970270725408E-004
 Grad orthogonality error:   3.55600976225417380E-006
 Step orthogonality error:   3.92614650641883187E-006
 ALMO SCF LS    17   -363.119363031898   0.000E+00   0.119E-03   0.655E-01    -0.12507     1.142
 VAR1: |B*X|:   0.17770986209476114     
 VAR1: |Q.X|:   0.17770986209476114     
 VAR1: |T0+Q.X|:   0.93825287558559956     

     Hotelling iter   1 1.00000000   0.100E+01       0.012      182.737
     Hotelling iter   2 1.00000000   0.354E+00       0.011      203.030
     Hotelling iter   3 1.00000000   0.842E-01       0.012      196.410
     Hotelling iter   4 1.00000000   0.811E-02       0.012      195.674
     Hotelling iter   5 1.00000000   0.108E-03       0.012      190.085
     Hotelling iter   6 1.00000000   0.266E-07       0.013      176.632
     Hotelling iter   7 1.00000000   0.306E-14       0.012      188.550
 Maximum norm of dE/dT:   8.21199485660554872E-005
 Grad orthogonality error:   2.74069115194523758E-006
 ....updating step direction....
 ....applying preconditioner....
 ....special case 1....
 Dir orthogonality error:   1.06447975725786317E-006
 ....final beta....  0.17263940082161225     
 Step orthogonality error:   1.74235281468374720E-006
 ALMO SCF CG    18   -363.119363045911  -0.692E-06   0.824E-04   0.427E-07     0.92278     1.450
 VAR1: |B*X|:   0.17769644795965991     
 VAR1: |Q.X|:   0.17769644795965991     
 VAR1: |T0+Q.X|:   0.93825405277475260     

     Hotelling iter   1 1.00000000   0.100E+01       0.011      199.064
     Hotelling iter   2 1.00000000   0.354E+00       0.016      146.170
     Hotelling iter   3 1.00000000   0.842E-01       0.012      197.555
     Hotelling iter   4 1.00000000   0.811E-02       0.012      193.420
     Hotelling iter   5 1.00000000   0.108E-03       0.011      199.195
     Hotelling iter   6 1.00000000   0.266E-07       0.012      195.413
     Hotelling iter   7 1.00000000   0.310E-14       0.012      194.980
 Maximum norm of dE/dT:   4.05954990155777339E-005
 Grad orthogonality error:   1.10756863857492715E-006
 Step orthogonality error:   1.74226296683431130E-006
 ALMO SCF LS    19   -363.119363172530   0.000E+00   0.407E-04  -0.619E-02     0.01320     1.148
 VAR1: |B*X|:   0.17769625600738381     
 VAR1: |Q.X|:   0.17769625600738381     
 VAR1: |T0+Q.X|:   0.93825406961997859     

     Hotelling iter   1 1.00000000   0.100E+01       0.012      190.675
     Hotelling iter   2 1.00000000   0.354E+00       0.011      198.906
     Hotelling iter   3 1.00000000   0.842E-01       0.012      196.666
     Hotelling iter   4 1.00000000   0.811E-02       0.012      191.935
     Hotelling iter   5 1.00000000   0.108E-03       0.011      198.593
     Hotelling iter   6 1.00000000   0.266E-07       0.012      193.429
     Hotelling iter   7 1.00000000   0.311E-14       0.011      198.299
 Maximum norm of dE/dT:   4.23515284714348682E-005
 Grad orthogonality error:   1.09033651262299745E-006
 ....updating step direction....
 ....applying preconditioner....
 ....special case 1....
 Dir orthogonality error:   4.92903249753928363E-007
 ....final beta....  0.23433207578680668     
 Step orthogonality error:   9.01171046058888534E-007
 ALMO SCF CG    20   -363.119363172555  -0.127E-06   0.424E-04  -0.339E-08     0.98278     1.445
 VAR1: |B*X|:   0.17770030280998841     
 VAR1: |Q.X|:   0.17770030280998841     
 VAR1: |T0+Q.X|:   0.93825356649077440     

     Hotelling iter   1 1.00000000   0.100E+01       0.012      195.908
     Hotelling iter   2 1.00000000   0.354E+00       0.012      196.944
     Hotelling iter   3 1.00000000   0.842E-01       0.012      192.653
     Hotelling iter   4 1.00000000   0.811E-02       0.012      193.955
     Hotelling iter   5 1.00000000   0.108E-03       0.012      196.508
     Hotelling iter   6 1.00000000   0.266E-07       0.012      195.387
     Hotelling iter   7 1.00000000   0.306E-14       0.012      190.784
 Maximum norm of dE/dT:   2.30267349356907853E-005
 Grad orthogonality error:   5.01889286598111888E-007
 Step orthogonality error:   9.01251605690073982E-007
 ALMO SCF LS    21   -363.119363203364   0.000E+00   0.230E-04   0.515E-02    -0.01098     1.141
 VAR1: |B*X|:   0.17770025760347477     
 VAR1: |Q.X|:   0.17770025760347477     
 VAR1: |T0+Q.X|:   0.93825357211119109     

     Hotelling iter   1 1.00000000   0.100E+01       0.012      196.841
     Hotelling iter   2 1.00000000   0.354E+00       0.011      201.010
     Hotelling iter   3 1.00000000   0.842E-01       0.012      195.700
     Hotelling iter   4 1.00000000   0.811E-02       0.012      193.371
     Hotelling iter   5 1.00000000   0.108E-03       0.011      198.571
     Hotelling iter   6 1.00000000   0.266E-07       0.012      194.919
     Hotelling iter   7 1.00000000   0.307E-14       0.012      195.090
 Maximum norm of dE/dT:   2.22964009414946262E-005
 Grad orthogonality error:   5.01019970268139151E-007
 ....updating step direction....
 ....applying preconditioner....
 ....special case 1....
 Dir orthogonality error:   2.24884976801801398E-007
 ....final beta....  0.25950709696011848     
 Step orthogonality error:   4.33631306165868346E-007
 ALMO SCF CG    22   -363.119363203368  -0.308E-07   0.222E-04   0.358E-08     1.02039     1.447
 VAR1: |B*X|:   0.17770458290769373     
 VAR1: |Q.X|:   0.17770458290769373     
 VAR1: |T0+Q.X|:   0.93825321821614394     

     Hotelling iter   1 1.00000000   0.100E+01       0.012      194.365
     Hotelling iter   2 1.00000000   0.354E+00       0.011      200.725
     Hotelling iter   3 1.00000000   0.842E-01       0.012      195.587
     Hotelling iter   4 1.00000000   0.811E-02       0.012      193.515
     Hotelling iter   5 1.00000000   0.108E-03       0.012      196.356
     Hotelling iter   6 1.00000000   0.266E-07       0.012      193.452
     Hotelling iter   7 1.00000000   0.306E-14       0.012      193.171
 Maximum norm of dE/dT:   1.47373044448210205E-005
 Grad orthogonality error:   2.28392272951726251E-007
 Step orthogonality error:   4.33660725970174825E-007
 ALMO SCF LS    23   -363.119363210485   0.000E+00   0.147E-04   0.646E-01    -0.13487     1.140
 VAR1: |B*X|:   0.17770401121403026     
 VAR1: |Q.X|:   0.17770401121403026     
 VAR1: |T0+Q.X|:   0.93825326499194184     

     Hotelling iter   1 1.00000000   0.100E+01       0.012      194.421
     Hotelling iter   2 1.00000000   0.354E+00       0.015      148.585
     Hotelling iter   3 1.00000000   0.842E-01       0.012      194.844
     Hotelling iter   4 1.00000000   0.811E-02       0.011      199.080
     Hotelling iter   5 1.00000000   0.108E-03       0.012      196.392
     Hotelling iter   6 1.00000000   0.266E-07       0.012      196.983
     Hotelling iter   7 1.00000000   0.309E-14       0.011      200.385
 Maximum norm of dE/dT:   9.84239977909188204E-006
 Grad orthogonality error:   2.39830804846553211E-007
 ALMO SCF LS    24   -363.119363210654   0.000E+00   0.985E-05   0.646E-01    -0.13487     0.976
 _ENERGY-0:   -2151.4485680056168     
 _ENERGY-D:   -1.4762317957377766     
 _ENERGY-F:   -2152.9247998013548     

 DECOMPOSITION OF THE DELOCALIZATION ENERGY

 ENERGY| Total FORCE_EVAL ( QS ) energy (a.u.):            -2151.448568056081967


 -------------------------------------------------------------------------------
 ----                             MULTIGRID INFO                            ----
 -------------------------------------------------------------------------------
 count for grid        1:        1664555          cutoff [a.u.]          500.00
 count for grid        2:        1514813          cutoff [a.u.]          166.67
 count for grid        3:        1403799          cutoff [a.u.]           55.56
 count for grid        4:        1381150          cutoff [a.u.]           18.52
 count for grid        5:        2634944          cutoff [a.u.]            6.17
 total gridlevel count  :        8599261

 -------------------------------------------------------------------------------
 -                                                                             -
 -                         MESSAGE PASSING PERFORMANCE                         -
 -                                                                             -
 -------------------------------------------------------------------------------

 ROUTINE             CALLS  TOT TIME [s]  AVE VOLUME [Bytes]  PERFORMANCE [MB/s]
 MP_Group                5         0.000
 MP_Bcast               50         0.011            4195123.            18358.19
 MP_Allreduce          213         1.049               7780.                1.58
 MP_Gather               4         0.005               3584.                2.65
 MP_Sync                 5         0.000
 MP_Alltoall           723        25.229            5234752.              150.01
 MP_ISendRecv        19812         0.053              30827.            11605.84
 MP_Wait             24222         5.956
 MP_ISend             3990         0.133             172551.             5189.45
 MP_IRecv             3990         0.170             172416.             4041.88
 -------------------------------------------------------------------------------


 -------------------------------------------------------------------------------
 -                                                                             -
 -                           R E F E R E N C E S                               -
 -                                                                             -
 -------------------------------------------------------------------------------
 
 CP2K version 2.2.268 (Development Version), the CP2K developers group (2011).
 CP2K is freely available from http://cp2k.berlios.de/ .

 VandeVondele, J; Hutter, J. 
 JOURNAL OF CHEMICAL PHYSICS, 127 (11), 114105 (2007). 
 Gaussian basis sets for accurate calculations on molecular systems in
 gas and condensed phases.
 http://dx.doi.org/10.1063/1.2770708


 Krack, M. 
 THEORETICAL CHEMISTRY ACCOUNTS, 114 (1-3), 145-152 (2005). 
 Pseudopotentials for H to Kr optimized for gradient-corrected
 exchange-correlation functionals.
 http://dx.doi.org/10.1007/s00214-005-0655-y


 VandeVondele, J; Krack, M; Mohamed, F; Parrinello, M; Chassaing, T;
 Hutter, J. COMPUTER PHYSICS COMMUNICATIONS, 167 (2), 103-128 (2005). 
 QUICKSTEP: Fast and accurate density functional calculations using a
 mixed Gaussian and plane waves approach.
 http://dx.doi.org/10.1016/j.cpc.2004.12.014


 Frigo, M; Johnson, SG. 
 PROCEEDINGS OF THE IEEE, 93 (2), 216-231 (2005). 
 The design and implementation of FFTW3.
 http://dx.doi.org/10.1109/JPROC.2004.840301


 Hartwigsen, C; Goedecker, S; Hutter, J. 
 PHYSICAL REVIEW B, 58 (7), 3641-3662 (1998). 
 Relativistic separable dual-space Gaussian pseudopotentials from H to Rn.
 http://dx.doi.org/10.1103/PhysRevB.58.3641


 Lippert, G; Hutter, J; Parrinello, M. 
 MOLECULAR PHYSICS, 92 (3), 477-487 (1997). 
 A hybrid Gaussian and plane wave density functional scheme.
 http://dx.doi.org/10.1080/002689797170220


 Goedecker, S; Teter, M; Hutter, J. 
 PHYSICAL REVIEW B, 54 (3), 1703-1710 (1996). 
 Separable dual-space Gaussian pseudopotentials.
 http://dx.doi.org/10.1103/PhysRevB.54.1703


 BECKE, AD. PHYSICAL REVIEW A, 38 (6), 3098-3100 (1988). 
 DENSITY-FUNCTIONAL EXCHANGE-ENERGY APPROXIMATION WITH CORRECT
 ASYMPTOTIC-BEHAVIOR.
 http://dx.doi.org/10.1103/PhysRevA.38.3098


 LEE, CT; YANG, WT; PARR, RG. 
 PHYSICAL REVIEW B, 37 (2), 785-789 (1988). 
 DEVELOPMENT OF THE COLLE-SALVETTI CORRELATION-ENERGY FORMULA INTO A
 FUNCTIONAL OF THE ELECTRON-DENSITY.
 http://dx.doi.org/10.1103/PhysRevB.37.785


 -------------------------------------------------------------------------------
 -                                                                             -
 -                                T I M I N G                                  -
 -                                                                             -
 -------------------------------------------------------------------------------
 SUBROUTINE                       CALLS  ASD         SELF TIME        TOTAL TIME
                                              AVERAGE  MAXIMUM  AVERAGE  MAXIMUM
 CP2K                                 1  1.0    0.032    0.039  338.819  338.870
 qs_energies_scf                      1  2.0    0.000    0.001  338.208  338.270
 almo_entry_scf                       1  3.0    0.000    0.000  334.030  334.091
 almo_scf_main                        1  4.0    0.000    0.000  275.465  275.510
 almo_scf_dm_to_ks                   25  6.0    0.000    0.000  270.333  270.583
 almo_scf_main_block_diagonal         1  5.0    0.000    0.001  239.383  239.423
 qs_ks_update_qs_env                 26  7.0    0.001    0.001  164.149  164.400
 qs_ks_build_kohn_sham_matrix        26  8.0    0.032    0.039  164.118  164.369
 sum_up_and_integrate                26  9.0    0.161    0.201  132.287  132.539
 integrate_v_rspace                  26 10.0  116.036  118.029  132.126  132.400
 qs_rho_update_rho                   26  7.0    0.000    0.000  115.668  115.690
 calculate_rho_elec                  26  8.0   95.346   98.103  115.667  115.689
 almo_scf_main_quenched_almos         2  5.0    0.035    0.051   83.039   83.066
 almo_post_scf                        1  4.0    0.001    0.001   46.997   47.019
 cp_dbcsr_multiply_d               1908  7.4    0.009    0.010   46.210   46.467
 fft_wrap_pw1pw2                    495 10.9    0.015    0.019   36.593   37.065
 fft_wrap_pw1pw2_500                287 11.9    2.161    2.631   34.660   35.110
 fft3d_ps                           495 12.9    9.790   11.748   30.727   31.398
 qs_vxc_create                       26  9.0    0.002    0.002   27.502   27.640
 xc_vxc_pw_create                    26 10.0    0.448    0.524   27.500   27.638
 cp_dbcsr_mult_NS_NR                277  7.6   25.380   26.138   25.387   26.144
 density_rs2pw                       26  9.0    0.656    0.946   15.361   17.779
 rs_pw_transfer                     261 10.9    0.008    0.020   12.561   14.939
 xc_rho_set_and_dset_create          26 11.0    1.724    2.196   14.054   14.816
 almo_scf_t_to_p                     50  6.4    0.001    0.001   13.668   13.968
 distribute_matrix                   52 10.0    8.935   11.524    9.142   11.596
 almo_scf_init                        1  4.0    0.000    0.000   11.568   11.584
 x_to_yz                            182 14.1   10.988   11.339   10.988   11.339
 almo_scf_init_qs                     1  5.0    0.180    0.181   11.257   11.273
 yz_to_x                            157 13.8    9.479   10.614    9.479   10.614
 potential_pw2rs                     26 11.0    0.017    0.019    9.853    9.888
 -------------------------------------------------------------------------------

  **** **** ******  **  PROGRAM ENDED AT                 2012-06-12 21:35:18.898
 ***** ** ***  *** **   PROGRAM RAN ON                                  nid00029
 **    ****   ******    PROGRAM RAN BY                                  root ;-)
 ***** **    ** ** **   PROGRAM PROCESS ID                                 18979
  **** **  *******  **  PROGRAM STOPPED IN /scratch/weisshorn/rustamr/e298-1.304
                                           388
Application 983390 resources: utime ~41946s, stime ~1493s
