
  **** **** ******  **  PROGRAM STARTED AT               2012-06-12 21:12:17.842
 ***** ** ***  *** **   PROGRAM STARTED ON                              nid00029
 **    ****   ******    PROGRAM STARTED BY                              root ;-)
 ***** **    ** ** **   PROGRAM PROCESS ID                                 18763
  **** **  *******  **  PROGRAM STARTED IN /scratch/weisshorn/rustamr/e298-1.304
                                           388

 CP2K| version string:                CP2K version 2.2.268 (Development Version)
 CP2K| is freely available from                          http://cp2k.berlios.de/
 CP2K| Program compiled at                         Sun May 27 15:14:38 CEST 2012
 CP2K| Program compiled on                                                 rosa5
 CP2K| Program compiled for                                    rosa-new-gfortran
 CP2K| Last CVS entry                xas_tp_scf.F/1.101/Wed Jun 29 13:43:33 2011
 CP2K| Input file name                                           bulk.090000.inp

 GLOBAL| Force Environment number                                              1
 GLOBAL| Basis set file name            /users/rustamr/dev/cp2k/tests/QS/BASIS_M
 GLOBAL| Geminal file name                                         BASIS_GEMINAL
 GLOBAL| Potential file name            /users/rustamr/dev/cp2k/tests/QS/GTH_POT
 GLOBAL| MM Potential file name                                     MM_POTENTIAL
 GLOBAL| Coordinate file name                                      __STD_INPUT__
 GLOBAL| Method name                                                        CP2K
 GLOBAL| Project name                                                       bulk
 GLOBAL| Preferred FFT library                                             FFTW3
 GLOBAL| Run type                                                         ENERGY
 GLOBAL| All-to-all communication in single precision                          F
 GLOBAL| FFTs using library dependent lengths                                  F
 GLOBAL| Global print level                                               MEDIUM
 GLOBAL| Total number of message passing processes                           128
 GLOBAL| Number of threads for this process                                    1
 GLOBAL| This output is from process                                           0

 MEMORY| system memory details [Kb]
 MEMORY|                        rank 0           min           max       average
 MEMORY| MemTotal             33082792      33082792      33082792      33082792
 MEMORY| MemFree              30734656      30729724      30740948      30736282
 MEMORY| Buffers                     0             0             0             0
 MEMORY| Cached                 109956        105212        109956        107522
 MEMORY| Slab                   178300        178300        181116        180295
 MEMORY| SReclaimable             3492          3492          4224          3808
 MEMORY| MemLikelyFree        30848104      30839716      30851020      30847612

 DBCSR| Multiplication driver                                                SMM
 DBCSR| Multiplication stack size                                           1000
 DBCSR| Use subcommunicators                                                   F
 DBCSR| Use MPI combined types                                                 F
 DBCSR| Use MPI memory allocation                                              T


 *** Fundamental physical constants (SI units) ***

 *** Literature: B. J. Mohr and B. N. Taylor,
 ***             CODATA recommended values of the fundamental physical
 ***             constants: 2006, Web Version 5.1
 ***             http://physics.nist.gov/constants

 Speed of light in vacuum [m/s]                             2.99792458000000E+08
 Magnetic constant or permeability of vacuum [N/A**2]       1.25663706143592E-06
 Electric constant or permittivity of vacuum [F/m]          8.85418781762039E-12
 Planck constant (h) [J*s]                                  6.62606896000000E-34
 Planck constant (h-bar) [J*s]                              1.05457162825177E-34
 Elementary charge [C]                                      1.60217648700000E-19
 Electron mass [kg]                                         9.10938215000000E-31
 Electron g factor [ ]                                     -2.00231930436220E+00
 Proton mass [kg]                                           1.67262163700000E-27
 Fine-structure constant                                    7.29735253760000E-03
 Rydberg constant [1/m]                                     1.09737315685270E+07
 Avogrado constant [1/mol]                                  6.02214179000000E+23
 Boltzmann constant [J/K]                                   1.38065040000000E-23
 Atomic mass unit [kg]                                      1.66053878200000E-27
 Bohr radius [m]                                            5.29177208590000E-11

 *** Conversion factors ***

 [u] -> [a.u.]                                              1.82288848426455E+03
 [Angstrom] -> [Bohr] = [a.u.]                              1.88972613288564E+00
 [a.u.] = [Bohr] -> [Angstrom]                              5.29177208590000E-01
 [a.u.] -> [s]                                              2.41888432650478E-17
 [a.u.] -> [fs]                                             2.41888432650478E-02
 [a.u.] -> [J]                                              4.35974393937059E-18
 [a.u.] -> [K]                                              3.15774647902944E+05
 [a.u.] -> [kJ/mol]                                         2.62549961709828E+03
 [a.u.] -> [kcal/mol]                                       6.27509468713739E+02
 [a.u.] -> [Pa]                                             2.94210107994716E+13
 [a.u.] -> [bar]                                            2.94210107994716E+08
 [a.u.] -> [atm]                                            2.90362800883016E+08
 [a.u.] -> [eV]                                             2.72113838565563E+01
 [a.u.] -> [Hz]                                             6.57968392072181E+15
 [a.u.] -> [1/cm] (wave numbers)                            2.19474631370540E+05
 [a.u./Bohr**2] -> [1/cm]                                   5.14048714338585E+03
 

 CELL| Volume [angstrom^3]:                                             3749.654
 CELL| Vector a [angstrom]:      15.536     0.000     0.000    |a| =      15.536
 CELL| Vector b [angstrom]:       0.000    15.536     0.000    |b| =      15.536
 CELL| Vector c [angstrom]:       0.000     0.000    15.536    |c| =      15.536
 CELL| Angle (b,c), alpha [degree]:                                       90.000
 CELL| Angle (a,c), beta  [degree]:                                       90.000
 CELL| Angle (a,b), gamma [degree]:                                       90.000

 CELL_REF| Volume [angstrom^3]:                                         3749.654
 CELL_REF| Vector a [angstrom    15.536     0.000     0.000    |a| =      15.536
 CELL_REF| Vector b [angstrom     0.000    15.536     0.000    |b| =      15.536
 CELL_REF| Vector c [angstrom     0.000     0.000    15.536    |c| =      15.536
 CELL_REF| Angle (b,c), alpha [degree]:                                   90.000
 CELL_REF| Angle (a,c), beta  [degree]:                                   90.000
 CELL_REF| Angle (a,b), gamma [degree]:                                   90.000

 CELL_TOP| Volume [angstrom^3]:                                         3749.654
 CELL_TOP| Vector a [angstrom    15.536     0.000     0.000    |a| =      15.536
 CELL_TOP| Vector b [angstrom     0.000    15.536     0.000    |b| =      15.536
 CELL_TOP| Vector c [angstrom     0.000     0.000    15.536    |c| =      15.536
 CELL_TOP| Angle (b,c), alpha [degree]:                                   90.000
 CELL_TOP| Angle (a,c), beta  [degree]:                                   90.000
 CELL_TOP| Angle (a,b), gamma [degree]:                                   90.000

 GENERATE|  Preliminary Number of Bonds generated:                           250
 GENERATE|  Achieved consistency in connectivity generation.
 GENERATE|  Number of Bonds generated:                                       250
 REORDER |  
 REORDER |  Reordering Molecules. The Reordering of molecules will override all
 REORDER |  information regarding molecule names and residue names.
 REORDER |  New ones will be provided on the basis of the connectivity!
 REORDER |  Number of unique molecules found:      1.
 REORDER |  

 GENERATE|  Preliminary Number of Bonds generated:                           250
 GENERATE|  Achieved consistency in connectivity generation.
 GENERATE|  Number of Bonds generated:                                       250
 GENERATE|  Preliminary Number of Bends generated:                           125
 GENERATE|  Number of Bends generated:                                       125
 GENERATE|  Number of UB generated:                                          125
 GENERATE|  Preliminary Number of Torsions generated:                          0
 GENERATE|  Number of Torsions generated:                                      0
 GENERATE|  Number of Impropers generated:                                     0
 GENERATE|  Number of 1-4 interactions generated:                              0

 *******************************************************************************
 *******************************************************************************
 **                                                                           **
 **     #####                         ##              ##                      **
 **    ##   ##            ##          ##              ##                      **
 **   ##     ##                       ##            ######                    **
 **   ##     ##  ##   ##  ##   #####  ##  ##   ####   ##    #####    #####    **
 **   ##     ##  ##   ##  ##  ##      ## ##   ##      ##   ##   ##  ##   ##   **
 **   ##  ## ##  ##   ##  ##  ##      ####     ###    ##   ######   ######    **
 **    ##  ###   ##   ##  ##  ##      ## ##      ##   ##   ##       ##        **
 **     #######   #####   ##   #####  ##  ##  ####    ##    #####   ##        **
 **           ##                                                    ##        **
 **                                                                           **
 **                                                ... make the atoms dance   **
 **                                                                           **
 **            Copyright (C) by CP2K Developers Group (2000 - 2011)           **
 **                                                                           **
 *******************************************************************************

 DFT| Spin restricted Kohn-Sham (RKS) calculation                            RKS
 DFT| Multiplicity                                                             1
 DFT| Number of spin states                                                    1
 DFT| Charge                                                                   0
 DFT| Self-interaction correction (SIC)                                       NO
 DFT| Cutoffs: density                                              1.000000E-10
 DFT|          gradient                                             1.000000E-10
 DFT|          tau                                                  1.000000E-10
 DFT|          cutoff_smoothing_range                               0.000000E+00
 DFT| XC density smoothing                                                  NONE
 DFT| XC derivatives                                                          PW
 FUNCTIONAL| ROUTINE=NEW
 FUNCTIONAL| BECKE88:
 FUNCTIONAL| A. Becke, Phys. Rev. A 38, 3098 (1988) {LDA version}
 FUNCTIONAL| LYP:
 FUNCTIONAL| C. Lee, W. Yang, R.G. Parr, Phys. Rev. B, 37, 785 (1988) {LDA versi
 FUNCTIONAL| on}

 QS| Method:                                                                 GPW
 QS| Density plane wave grid type                        NON-SPHERICAL FULLSPACE
 QS| Number of grid levels:                                                    5
 QS| Density cutoff [a.u.]:                                                500.0
 QS| Multi grid cutoff [a.u.]: 1) grid level                               500.0
 QS|                           2) grid level                               166.7
 QS|                           3) grid level                                55.6
 QS|                           4) grid level                                18.5
 QS|                           5) grid level                                 6.2
 QS| Grid level progression factor:                                          3.0
 QS| Relative density cutoff [a.u.]:                                        15.0
 QS| Consistent realspace mapping and integration 
 QS| Interaction thresholds: eps_pgf_orb:                                1.0E-05
 QS|                         eps_filter_matrix:                          0.0E+00
 QS|                         eps_core_charge:                            1.0E-12
 QS|                         eps_rho_gspace:                             1.0E-10
 QS|                         eps_rho_rspace:                             1.0E-10
 QS|                         eps_gvg_rspace:                             1.0E-05
 QS|                         eps_ppl:                                    1.0E-02
 QS|                         eps_ppnl:                                   1.0E-07


 ATOMIC KIND INFORMATION

  1. Atomic kind: O                                     Number of atoms:     125

     Orbital basis set information for                          TZV2P-MOLOPT-GTH

       Number of orbital shell sets:                                           1
       Number of orbital shells:                                               8
       Number of primitive Cartesian functions:                                7
       Number of Cartesian basis functions:                                   24
       Number of spherical basis functions:                                   22

       Normalised Cartesian orbitals:

                        Set   Shell   Orbital            Exponent    Coefficient

                          1       1    2s               12.015955      -0.284499
                                                         5.108150      -0.322498
                                                         2.048398       0.148191
                                                         0.832382       0.295475
                                                         0.352316       0.150829
                                                         0.142977       0.015788
                                                         0.046761      -0.000019

                          1       2    3s               12.015955       0.725622
                                                         5.108150       0.644384
                                                         2.048398      -0.157350
                                                         0.832382      -0.853528
                                                         0.352316       0.146068
                                                         0.142977       0.153978
                                                         0.046761       0.000658

                          1       3    4s               12.015955       1.228006
                                                         5.108150       1.271453
                                                         2.048398      -0.537390
                                                         0.832382      -1.759282
                                                         0.352316       1.533697
                                                         0.142977      -0.562509
                                                         0.046761       0.081954

                          1       4    3px              12.015955       1.192141
                                                         5.108150       1.354170
                                                         2.048398       0.897267
                                                         0.832382       0.408839
                                                         0.352316       0.116648
                                                         0.142977       0.022184
                                                         0.046761       0.000308
                          1       4    3py              12.015955       1.192141
                                                         5.108150       1.354170
                                                         2.048398       0.897267
                                                         0.832382       0.408839
                                                         0.352316       0.116648
                                                         0.142977       0.022184
                                                         0.046761       0.000308
                          1       4    3pz              12.015955       1.192141
                                                         5.108150       1.354170
                                                         2.048398       0.897267
                                                         0.832382       0.408839
                                                         0.352316       0.116648
                                                         0.142977       0.022184
                                                         0.046761       0.000308

                          1       5    4px              12.015955      -1.062381
                                                         5.108150      -1.285791
                                                         2.048398      -0.727000
                                                         0.832382      -0.522764
                                                         0.352316       0.182681
                                                         0.142977       0.087560
                                                         0.046761       0.000981
                          1       5    4py              12.015955      -1.062381
                                                         5.108150      -1.285791
                                                         2.048398      -0.727000
                                                         0.832382      -0.522764
                                                         0.352316       0.182681
                                                         0.142977       0.087560
                                                         0.046761       0.000981
                          1       5    4pz              12.015955      -1.062381
                                                         5.108150      -1.285791
                                                         2.048398      -0.727000
                                                         0.832382      -0.522764
                                                         0.352316       0.182681
                                                         0.142977       0.087560
                                                         0.046761       0.000981

                          1       6    5px              12.015955      -0.063722
                                                         5.108150       0.363638
                                                         2.048398       0.015152
                                                         0.832382      -0.083580
                                                         0.352316       0.692078
                                                         0.142977      -0.184312
                                                         0.046761       0.007664
                          1       6    5py              12.015955      -0.063722
                                                         5.108150       0.363638
                                                         2.048398       0.015152
                                                         0.832382      -0.083580
                                                         0.352316       0.692078
                                                         0.142977      -0.184312
                                                         0.046761       0.007664
                          1       6    5pz              12.015955      -0.063722
                                                         5.108150       0.363638
                                                         2.048398       0.015152
                                                         0.832382      -0.083580
                                                         0.352316       0.692078
                                                         0.142977      -0.184312
                                                         0.046761       0.007664

                          1       7    4dx2             12.015955       1.125955
                                                         5.108150       1.160468
                                                         2.048398       0.999335
                                                         0.832382       0.756334
                                                         0.352316       0.048604
                                                         0.142977       0.010378
                                                         0.046761      -0.000027
                          1       7    4dxy             12.015955       1.950212
                                                         5.108150       2.009990
                                                         2.048398       1.730899
                                                         0.832382       1.310009
                                                         0.352316       0.084185
                                                         0.142977       0.017974
                                                         0.046761      -0.000046
                          1       7    4dxz             12.015955       1.950212
                                                         5.108150       2.009990
                                                         2.048398       1.730899
                                                         0.832382       1.310009
                                                         0.352316       0.084185
                                                         0.142977       0.017974
                                                         0.046761      -0.000046
                          1       7    4dy2             12.015955       1.125955
                                                         5.108150       1.160468
                                                         2.048398       0.999335
                                                         0.832382       0.756334
                                                         0.352316       0.048604
                                                         0.142977       0.010378
                                                         0.046761      -0.000027
                          1       7    4dyz             12.015955       1.950212
                                                         5.108150       2.009990
                                                         2.048398       1.730899
                                                         0.832382       1.310009
                                                         0.352316       0.084185
                                                         0.142977       0.017974
                                                         0.046761      -0.000046
                          1       7    4dz2             12.015955       1.125955
                                                         5.108150       1.160468
                                                         2.048398       0.999335
                                                         0.832382       0.756334
                                                         0.352316       0.048604
                                                         0.142977       0.010378
                                                         0.046761      -0.000027

                          1       8    5dx2             12.015955      -2.135425
                                                         5.108150       0.581743
                                                         2.048398      -1.302492
                                                         0.832382       0.098118
                                                         0.352316       0.292085
                                                         0.142977      -0.022029
                                                         0.046761      -0.003795
                          1       8    5dxy             12.015955      -3.698665
                                                         5.108150       1.007608
                                                         2.048398      -2.255983
                                                         0.832382       0.169945
                                                         0.352316       0.505906
                                                         0.142977      -0.038155
                                                         0.046761      -0.006574
                          1       8    5dxz             12.015955      -3.698665
                                                         5.108150       1.007608
                                                         2.048398      -2.255983
                                                         0.832382       0.169945
                                                         0.352316       0.505906
                                                         0.142977      -0.038155
                                                         0.046761      -0.006574
                          1       8    5dy2             12.015955      -2.135425
                                                         5.108150       0.581743
                                                         2.048398      -1.302492
                                                         0.832382       0.098118
                                                         0.352316       0.292085
                                                         0.142977      -0.022029
                                                         0.046761      -0.003795
                          1       8    5dyz             12.015955      -3.698665
                                                         5.108150       1.007608
                                                         2.048398      -2.255983
                                                         0.832382       0.169945
                                                         0.352316       0.505906
                                                         0.142977      -0.038155
                                                         0.046761      -0.006574
                          1       8    5dz2             12.015955      -2.135425
                                                         5.108150       0.581743
                                                         2.048398      -1.302492
                                                         0.832382       0.098118
                                                         0.352316       0.292085
                                                         0.142977      -0.022029
                                                         0.046761      -0.003795

     Potential information for                                       GTH-BLYP-q6

       Description:                       Goedecker-Teter-Hutter pseudopotential
                                           Goedecker et al., PRB 54, 1703 (1996)
                                          Hartwigsen et al., PRB 58, 3641 (1998)
                                                      Krack, TCA 114, 145 (2005)

       Gaussian exponent of the core charge distribution:               8.438331
       Electronic configuration (s p d ...):                               2   4

       Parameters of the local part of the GTH pseudopotential:

                          rloc        C1          C2          C3          C4
                        0.243420  -16.991892    2.566142

       Parameters of the non-local part of the GTH pseudopotential:

                   l      r(l)      h(i,j,l)

                   0    0.220831   18.388851
                   1    0.217201

  2. Atomic kind: H                                     Number of atoms:     250

     Orbital basis set information for                          TZV2P-MOLOPT-GTH

       Number of orbital shell sets:                                           1
       Number of orbital shells:                                               5
       Number of primitive Cartesian functions:                                7
       Number of Cartesian basis functions:                                    9
       Number of spherical basis functions:                                    9

       Normalised Cartesian orbitals:

                        Set   Shell   Orbital            Exponent    Coefficient

                          1       1    2s               11.478000       0.129129
                                                         3.700759       0.177012
                                                         1.446884       0.141285
                                                         0.716815       0.245670
                                                         0.247919       0.094768
                                                         0.066918       0.004062
                                                         0.021708      -0.000053

                          1       2    3s               11.478000      -0.079256
                                                         3.700759      -0.152992
                                                         1.446884       0.015066
                                                         0.716815      -0.331234
                                                         0.247919       0.210690
                                                         0.066918       0.058630
                                                         0.021708      -0.003429

                          1       3    4s               11.478000      -0.246880
                                                         3.700759       0.023016
                                                         1.446884      -1.109374
                                                         0.716815       1.524652
                                                         0.247919      -0.227968
                                                         0.066918      -0.037343
                                                         0.021708       0.005696

                          1       4    3px              11.478000       0.325290
                                                         3.700759       0.187466
                                                         1.446884       0.443300
                                                         0.716815       0.267738
                                                         0.247919       0.088285
                                                         0.066918       0.019092
                                                         0.021708       0.000629
                          1       4    3py              11.478000       0.325290
                                                         3.700759       0.187466
                                                         1.446884       0.443300
                                                         0.716815       0.267738
                                                         0.247919       0.088285
                                                         0.066918       0.019092
                                                         0.021708       0.000629
                          1       4    3pz              11.478000       0.325290
                                                         3.700759       0.187466
                                                         1.446884       0.443300
                                                         0.716815       0.267738
                                                         0.247919       0.088285
                                                         0.066918       0.019092
                                                         0.021708       0.000629

                          1       5    4px              11.478000      -1.727188
                                                         3.700759      -0.598393
                                                         1.446884      -3.813128
                                                         0.716815       1.901151
                                                         0.247919      -0.262425
                                                         0.066918       0.006339
                                                         0.021708       0.007345
                          1       5    4py              11.478000      -1.727188
                                                         3.700759      -0.598393
                                                         1.446884      -3.813128
                                                         0.716815       1.901151
                                                         0.247919      -0.262425
                                                         0.066918       0.006339
                                                         0.021708       0.007345
                          1       5    4pz              11.478000      -1.727188
                                                         3.700759      -0.598393
                                                         1.446884      -3.813128
                                                         0.716815       1.901151
                                                         0.247919      -0.262425
                                                         0.066918       0.006339
                                                         0.021708       0.007345

     Potential information for                                       GTH-BLYP-q1

       Description:                       Goedecker-Teter-Hutter pseudopotential
                                           Goedecker et al., PRB 54, 1703 (1996)
                                          Hartwigsen et al., PRB 58, 3641 (1998)
                                                      Krack, TCA 114, 145 (2005)

       Gaussian exponent of the core charge distribution:              12.500000
       Electronic configuration (s p d ...):                                   1

       Parameters of the local part of the GTH pseudopotential:

                          rloc        C1          C2          C3          C4
                        0.200000   -4.195961    0.730498


 MOLECULE KIND INFORMATION

     1. Molecule kind: H2O                       Number of atoms:              3
                     Atom         Atomic kind name
                        1                        O
                        2                        H
                        3                        H

        The name was automatically generated: F
        Number of molecules:    125
        Molecule list:                1         2         3         4         5
                                      6         7         8         9        10
                                     11        12        13        14        15
                                     16        17        18        19        20
                                     21        22        23        24        25
                                     26        27        28        29        30
                                     31        32        33        34        35
                                     36        37        38        39        40
                                     41        42        43        44        45
                                     46        47        48        49        50
                                     51        52        53        54        55
                                     56        57        58        59        60
                                     61        62        63        64        65
                                     66        67        68        69        70
                                     71        72        73        74        75
                                     76        77        78        79        80
                                     81        82        83        84        85
                                     86        87        88        89        90
                                     91        92        93        94        95
                                     96        97        98        99       100
                                    101       102       103       104       105
                                    106       107       108       109       110
                                    111       112       113       114       115
                                    116       117       118       119       120
                                    121       122       123       124       125
        Number of bonds:            2
        Number of bends:            1
        Number of Urey-Bradley:     1


 MOLECULE KIND SET INFORMATION               Total Number of bonds:          250
                                             Total Number of bends:          125
                                             Total Number of Urey-Bradley:   125
                                             Total Number of torsions:         0
                                             Total Number of improper:         0
                                              Total Number of opbends:         0


 TOTAL NUMBERS AND MAXIMUM NUMBERS

  Total number of            - Atomic kinds:                                   2
                             - Atoms:                                        375
                             - Shell sets:                                   375
                             - Shells:                                      2250
                             - Primitive Cartesian functions:               2625
                             - Cartesian basis functions:                   5250
                             - Spherical basis functions:                   5000

  Maximum angular momentum of- Orbital basis functions:                        2
                             - Local part of the GTH pseudopotential:          2
                             - Non-local part of the GTH pseudopotential:      0


 MODULE QUICKSTEP:  ATOMIC COORDINATES IN angstrom

  Atom  Kind  Element       X           Y           Z          Z(eff)       Mass

       1     1 O    8    1.835139    1.992073    1.705147      6.00      15.9994
       2     2 H    1    1.277063    2.338017    2.461758      1.00       1.0079
       3     2 H    1    1.235235    1.753597    0.890095      1.00       1.0079
       4     1 O    8    7.895138    2.548332   14.878506      6.00      15.9994
       5     2 H    1    8.390669    1.756382   15.051097      1.00       1.0079
       6     2 H    1    8.280824    3.256652   14.353273      1.00       1.0079
       7     1 O    8    3.106485    6.157138   10.939482      6.00      15.9994
       8     2 H    1    3.611603    6.624381   10.262005      1.00       1.0079
       9     2 H    1    3.801478    5.720135   11.459927      1.00       1.0079
      10     1 O    8    4.619395   14.925519   14.365479      6.00      15.9994
      11     2 H    1    4.825648   15.839133   13.980807      1.00       1.0079
      12     2 H    1    3.631567   14.796528   14.533644      1.00       1.0079
      13     1 O    8    8.090061    9.656455    4.753975      6.00      15.9994
      14     2 H    1    9.109093    9.657293    4.915468      1.00       1.0079
      15     2 H    1    7.784780   10.527341    5.135666      1.00       1.0079
      16     1 O    8    1.467794    4.912326    8.407123      6.00      15.9994
      17     2 H    1    1.213267    4.714387    7.493869      1.00       1.0079
      18     2 H    1    1.611220    5.868562    8.529522      1.00       1.0079
      19     1 O    8    4.251650    6.405786    7.087382      6.00      15.9994
      20     2 H    1    4.374781    5.436859    6.769016      1.00       1.0079
      21     2 H    1    5.095472    6.777077    6.633671      1.00       1.0079
      22     1 O    8    6.296215   10.198412    2.289475      6.00      15.9994
      23     2 H    1    5.443005   10.635004    2.056018      1.00       1.0079
      24     2 H    1    6.205067    9.771737    3.194720      1.00       1.0079
      25     1 O    8    5.391393    2.349462   13.522081      6.00      15.9994
      26     2 H    1    4.860164    2.280665   14.333235      1.00       1.0079
      27     2 H    1    6.299483    2.518047   13.822641      1.00       1.0079
      28     1 O    8   13.491135    3.893206    8.313761      6.00      15.9994
      29     2 H    1   13.179160    2.981830    8.546768      1.00       1.0079
      30     2 H    1   14.366506    3.709176    8.667989      1.00       1.0079
      31     1 O    8   14.816977   14.762743    3.989732      6.00      15.9994
      32     2 H    1   13.986226   14.678751    4.491863      1.00       1.0079
      33     2 H    1   14.808857   15.355239    3.238502      1.00       1.0079
      34     1 O    8    7.773258   12.945099   14.865197      6.00      15.9994
      35     2 H    1    8.250181   12.178034   14.384237      1.00       1.0079
      36     2 H    1    6.835199   12.721592   14.884331      1.00       1.0079
      37     1 O    8    6.077414    4.605662    9.064123      6.00      15.9994
      38     2 H    1    5.254069    4.337704    8.540845      1.00       1.0079
      39     2 H    1    5.787098    5.550255    9.279847      1.00       1.0079
      40     1 O    8   13.163221   13.660536    0.233299      6.00      15.9994
      41     2 H    1   13.382247   14.566389    0.676958      1.00       1.0079
      42     2 H    1   13.308482   13.083693    0.995755      1.00       1.0079
      43     1 O    8   10.142986    5.800599    9.120512      6.00      15.9994
      44     2 H    1   10.831855    5.865117    8.441896      1.00       1.0079
      45     2 H    1    9.580242    5.086418    8.767437      1.00       1.0079
      46     1 O    8    4.122296   12.503079    3.624151      6.00      15.9994
      47     2 H    1    4.177815   11.796031    4.291667      1.00       1.0079
      48     2 H    1    3.434871   12.208827    2.965021      1.00       1.0079
      49     1 O    8    8.509976    7.586425    7.822076      6.00      15.9994
      50     2 H    1    9.032399    6.967004    8.388362      1.00       1.0079
      51     2 H    1    8.933972    7.474987    6.953259      1.00       1.0079
      52     1 O    8   11.003823   11.808708    8.518757      6.00      15.9994
      53     2 H    1   10.088194   11.628665    8.262307      1.00       1.0079
      54     2 H    1   10.965957   12.189476    9.400497      1.00       1.0079
      55     1 O    8    0.129398    5.698899   13.670778      6.00      15.9994
      56     2 H    1    0.002442    5.548447   14.655179      1.00       1.0079
      57     2 H    1   -0.531894    5.022120   13.314441      1.00       1.0079
      58     1 O    8   13.012993    4.304813    1.019359      6.00      15.9994
      59     2 H    1   12.976252    3.933749    1.912407      1.00       1.0079
      60     2 H    1   13.954417    4.649904    0.961199      1.00       1.0079
      61     1 O    8   10.814265   11.426323   13.043193      6.00      15.9994
      62     2 H    1   11.665802   10.922316   13.088518      1.00       1.0079
      63     2 H    1   10.981766   12.120054   12.298957      1.00       1.0079
      64     1 O    8    3.433394    0.698382    9.732042      6.00      15.9994
      65     2 H    1    4.149143    1.356145    9.883198      1.00       1.0079
      66     2 H    1    3.900581   -0.000492    9.228614      1.00       1.0079
      67     1 O    8    5.462294   10.197521   13.193005      6.00      15.9994
      68     2 H    1    6.413743   10.159160   13.145734      1.00       1.0079
      69     2 H    1    5.208678    9.333809   13.657275      1.00       1.0079
      70     1 O    8    0.043670    3.461904    6.248779      6.00      15.9994
      71     2 H    1   -0.011599    3.020733    5.371711      1.00       1.0079
      72     2 H    1   -0.504513    2.976103    6.895340      1.00       1.0079
      73     1 O    8    0.029425   11.629229   10.952601      6.00      15.9994
      74     2 H    1   -0.177909   10.729566   11.417778      1.00       1.0079
      75     2 H    1    0.637092   12.296866   11.320961      1.00       1.0079
      76     1 O    8    7.772023    2.447369    5.755496      6.00      15.9994
      77     2 H    1    8.545003    2.585394    5.120429      1.00       1.0079
      78     2 H    1    7.009883    2.993280    5.439248      1.00       1.0079
      79     1 O    8    4.461837   14.054610   11.355458      6.00      15.9994
      80     2 H    1    4.320425   14.067244   12.310994      1.00       1.0079
      81     2 H    1    4.221703   14.877202   10.909427      1.00       1.0079
      82     1 O    8    1.993561   13.460580    9.290184      6.00      15.9994
      83     2 H    1    2.697116   12.816773    8.952991      1.00       1.0079
      84     2 H    1    1.288165   13.375733    8.543599      1.00       1.0079
      85     1 O    8   11.375219    6.558888    0.415026      6.00      15.9994
      86     2 H    1   11.904590    5.740571    0.676915      1.00       1.0079
      87     2 H    1   11.853305    6.878376   -0.360270      1.00       1.0079
      88     1 O    8    2.840660   11.775875    1.178725      6.00      15.9994
      89     2 H    1    2.413553   10.917778    1.060876      1.00       1.0079
      90     2 H    1    3.684375   11.833160    0.566842      1.00       1.0079
      91     1 O    8    5.104071    5.185869   12.688297      6.00      15.9994
      92     2 H    1    5.146778    4.313089   13.167865      1.00       1.0079
      93     2 H    1    6.032857    5.507029   12.540368      1.00       1.0079
      94     1 O    8    8.531950    3.562000    8.116211      6.00      15.9994
      95     2 H    1    8.110297    3.278294    7.254435      1.00       1.0079
      96     2 H    1    7.776848    3.857594    8.624690      1.00       1.0079
      97     1 O    8    2.568752    4.225555    4.216468      6.00      15.9994
      98     2 H    1    2.296989    5.091998    4.569934      1.00       1.0079
      99     2 H    1    2.962920    4.339000    3.350072      1.00       1.0079
     100     1 O    8    8.814867    9.870209    9.296612      6.00      15.9994
     101     2 H    1    7.912026   10.142604    9.611104      1.00       1.0079
     102     2 H    1    8.588329    9.089604    8.684269      1.00       1.0079
     103     1 O    8    9.639461    4.824923   14.756633      6.00      15.9994
     104     2 H    1   10.095926    5.500020   15.272401      1.00       1.0079
     105     2 H    1   10.225339    4.005320   14.646927      1.00       1.0079
     106     1 O    8    2.162582   10.238816    9.678613      6.00      15.9994
     107     2 H    1    1.569191   10.962246    9.890699      1.00       1.0079
     108     2 H    1    2.904840   10.310822   10.345716      1.00       1.0079
     109     1 O    8    9.138683    0.149074   13.601608      6.00      15.9994
     110     2 H    1    9.795436   -0.479865   14.033292      1.00       1.0079
     111     2 H    1    8.370396   -0.383503   13.862149      1.00       1.0079
     112     1 O    8    9.299363   14.362913    5.250468      6.00      15.9994
     113     2 H    1    8.361745   14.662519    5.452034      1.00       1.0079
     114     2 H    1    9.421526   13.890671    4.387851      1.00       1.0079
     115     1 O    8   14.001521    7.235205    9.618761      6.00      15.9994
     116     2 H    1   13.388885    6.415522    9.755473      1.00       1.0079
     117     2 H    1   13.466911    8.010345    9.271079      1.00       1.0079
     118     1 O    8    3.833454   10.473455    5.648130      6.00      15.9994
     119     2 H    1    2.924665   10.458967    5.943657      1.00       1.0079
     120     2 H    1    4.324376   10.947787    6.370584      1.00       1.0079
     121     1 O    8    0.499185    2.537718    3.864098      6.00      15.9994
     122     2 H    1    1.209517    3.232528    4.104615      1.00       1.0079
     123     2 H    1    0.960523    1.733909    4.104892      1.00       1.0079
     124     1 O    8   11.604715   12.272492    4.056704      6.00      15.9994
     125     2 H    1   12.328030   11.925344    3.486047      1.00       1.0079
     126     2 H    1   11.877793   13.136570    4.503206      1.00       1.0079
     127     1 O    8    9.625968    1.082172    8.033376      6.00      15.9994
     128     2 H    1    9.338704    1.968638    8.193041      1.00       1.0079
     129     2 H    1    8.798144    0.540714    8.217996      1.00       1.0079
     130     1 O    8    3.034002    5.442316    1.357944      6.00      15.9994
     131     2 H    1    3.526147    4.749469    0.844323      1.00       1.0079
     132     2 H    1    3.626651    6.146716    1.670949      1.00       1.0079
     133     1 O    8   14.339421   14.191634   10.321289      6.00      15.9994
     134     2 H    1   14.672682   13.341530   10.060005      1.00       1.0079
     135     2 H    1   15.092147   14.849928   10.124791      1.00       1.0079
     136     1 O    8   10.615368    8.141716   10.779117      6.00      15.9994
     137     2 H    1   10.110070    7.297241   10.457052      1.00       1.0079
     138     2 H    1    9.977966    8.825291   10.450880      1.00       1.0079
     139     1 O    8    0.020958   12.324643   14.825130      6.00      15.9994
     140     2 H    1    0.077497   11.527241   15.347332      1.00       1.0079
     141     2 H    1   -0.733352   12.825782   15.277264      1.00       1.0079
     142     1 O    8   12.966557    9.353805    0.807772      6.00      15.9994
     143     2 H    1   12.088452    9.492354    1.297208      1.00       1.0079
     144     2 H    1   12.676739    9.694206   -0.054554      1.00       1.0079
     145     1 O    8   13.216057    2.258528    3.132304      6.00      15.9994
     146     2 H    1   14.092604    2.106481    3.589145      1.00       1.0079
     147     2 H    1   12.732971    2.800007    3.802415      1.00       1.0079
     148     1 O    8    8.854958   14.596761   11.171892      6.00      15.9994
     149     2 H    1    9.016846   15.339864   11.849441      1.00       1.0079
     150     2 H    1    8.317197   13.907893   11.630236      1.00       1.0079
     151     1 O    8   13.667277   11.820602    2.297988      6.00      15.9994
     152     2 H    1   14.427699   12.054873    2.845392      1.00       1.0079
     153     2 H    1   13.777711   10.901230    1.899029      1.00       1.0079
     154     1 O    8    3.110342    8.693644    0.568734      6.00      15.9994
     155     2 H    1    3.445666    8.196098    1.338022      1.00       1.0079
     156     2 H    1    3.600314    8.327121   -0.221717      1.00       1.0079
     157     1 O    8    0.981941    7.648296    8.895541      6.00      15.9994
     158     2 H    1    0.086229    7.555699    9.278281      1.00       1.0079
     159     2 H    1    1.371250    8.384247    9.386038      1.00       1.0079
     160     1 O    8    8.544582   11.733515    1.619501      6.00      15.9994
     161     2 H    1    7.857877   11.151454    2.004910      1.00       1.0079
     162     2 H    1    8.103383   12.171502    0.877911      1.00       1.0079
     163     1 O    8   10.152093    5.836341    4.934769      6.00      15.9994
     164     2 H    1    9.746137    6.441191    4.255936      1.00       1.0079
     165     2 H    1   10.274099    5.030918    4.410121      1.00       1.0079
     166     1 O    8    0.580928    9.543074   15.347564      6.00      15.9994
     167     2 H    1    0.094005    8.775136   15.767850      1.00       1.0079
     168     2 H    1    1.589411    9.370296   15.385010      1.00       1.0079
     169     1 O    8   10.648118   13.653886   14.977305      6.00      15.9994
     170     2 H    1   10.577225   12.762781   14.497528      1.00       1.0079
     171     2 H    1   11.619510   13.770335   15.172177      1.00       1.0079
     172     1 O    8    7.281263   12.252820    5.550282      6.00      15.9994
     173     2 H    1    8.100048   12.794528    5.772298      1.00       1.0079
     174     2 H    1    6.947663   12.724636    4.719589      1.00       1.0079
     175     1 O    8   12.617517    8.380858    6.198677      6.00      15.9994
     176     2 H    1   12.411707    7.469536    6.479845      1.00       1.0079
     177     2 H    1   12.293324    8.833592    7.016964      1.00       1.0079
     178     1 O    8    0.479330   12.414411    4.675277      6.00      15.9994
     179     2 H    1    0.543773   13.370362    4.333262      1.00       1.0079
     180     2 H    1    0.800590   12.322113    5.654859      1.00       1.0079
     181     1 O    8   11.935344    5.882173    7.118321      6.00      15.9994
     182     2 H    1   12.575931    5.091051    7.000322      1.00       1.0079
     183     2 H    1   11.426506    5.855164    6.254939      1.00       1.0079
     184     1 O    8    2.114793   11.141462   13.256703      6.00      15.9994
     185     2 H    1    1.489149   11.443135   14.021955      1.00       1.0079
     186     2 H    1    1.925322   10.190045   13.403887      1.00       1.0079
     187     1 O    8    7.162931    3.725989    1.728041      6.00      15.9994
     188     2 H    1    7.270446    3.181122    0.918458      1.00       1.0079
     189     2 H    1    7.085038    4.642009    1.330435      1.00       1.0079
     190     1 O    8    8.176519    7.334760   14.406382      6.00      15.9994
     191     2 H    1    7.796535    7.211740   15.280098      1.00       1.0079
     192     2 H    1    8.691394    6.461341   14.272556      1.00       1.0079
     193     1 O    8   12.453527    5.217621   10.940159      6.00      15.9994
     194     2 H    1   12.952597    4.426883   11.331730      1.00       1.0079
     195     2 H    1   11.784193    4.781806   10.368516      1.00       1.0079
     196     1 O    8    0.409018    1.634842   15.028786      6.00      15.9994
     197     2 H    1    0.685215    2.331653   14.392887      1.00       1.0079
     198     2 H    1    0.756300    0.793765   14.623485      1.00       1.0079
     199     1 O    8    9.410207    3.231654    3.346194      6.00      15.9994
     200     2 H    1    8.548897    3.435263    2.900675      1.00       1.0079
     201     2 H    1    9.791380    2.405597    2.950833      1.00       1.0079
     202     1 O    8    0.226501    3.452847   10.058809      6.00      15.9994
     203     2 H    1    0.712983    4.123206    9.497182      1.00       1.0079
     204     2 H    1    0.630333    2.526243    9.870742      1.00       1.0079
     205     1 O    8    0.150872    5.259729    0.880887      6.00      15.9994
     206     2 H    1   -0.098555    6.168430    1.188493      1.00       1.0079
     207     2 H    1    1.064713    5.204083    1.100699      1.00       1.0079
     208     1 O    8   12.961702   10.110615   13.568598      6.00      15.9994
     209     2 H    1   13.778327    9.853373   13.158821      1.00       1.0079
     210     2 H    1   12.516782    9.241813   13.486428      1.00       1.0079
     211     1 O    8   15.268452    8.051181    6.332281      6.00      15.9994
     212     2 H    1   15.538690    7.665777    7.283168      1.00       1.0079
     213     2 H    1   14.269099    7.907020    6.212975      1.00       1.0079
     214     1 O    8   12.783480    3.720316    5.231710      6.00      15.9994
     215     2 H    1   12.314343    3.237483    5.970305      1.00       1.0079
     216     2 H    1   13.632259    3.850134    5.602831      1.00       1.0079
     217     1 O    8   12.906676    1.140025   13.027264      6.00      15.9994
     218     2 H    1   12.749648    1.123746   12.041467      1.00       1.0079
     219     2 H    1   12.776219    0.206669   13.305838      1.00       1.0079
     220     1 O    8    3.943118    7.584622    3.542685      6.00      15.9994
     221     2 H    1    4.500855    7.622540    4.374611      1.00       1.0079
     222     2 H    1    3.082738    7.224722    3.813604      1.00       1.0079
     223     1 O    8   15.131122    9.285934   12.252174      6.00      15.9994
     224     2 H    1   16.023702    9.128903   12.648093      1.00       1.0079
     225     2 H    1   14.865063    8.713360   11.459857      1.00       1.0079
     226     1 O    8    2.723083    0.332778    3.902548      6.00      15.9994
     227     2 H    1    2.901999   -0.606849    3.946411      1.00       1.0079
     228     2 H    1    2.743739    0.512911    2.952200      1.00       1.0079
     229     1 O    8    9.345117    7.351308    1.946620      6.00      15.9994
     230     2 H    1   10.131506    6.923099    1.610579      1.00       1.0079
     231     2 H    1    9.717917    8.173023    2.123862      1.00       1.0079
     232     1 O    8    6.163445    4.194179    4.342489      6.00      15.9994
     233     2 H    1    6.347243    3.739242    3.448246      1.00       1.0079
     234     2 H    1    5.166002    4.193452    4.501905      1.00       1.0079
     235     1 O    8    0.135834    9.788371    3.391683      6.00      15.9994
     236     2 H    1    0.355485   10.608556    3.936288      1.00       1.0079
     237     2 H    1   -0.512719    9.322706    4.001169      1.00       1.0079
     238     1 O    8    7.301790    0.162928    9.322540      6.00      15.9994
     239     2 H    1    7.876250   -0.209305   10.008088      1.00       1.0079
     240     2 H    1    6.781342    0.886104    9.788315      1.00       1.0079
     241     1 O    8    1.784061    3.515242   13.261578      6.00      15.9994
     242     2 H    1    1.980418    3.494539   12.306913      1.00       1.0079
     243     2 H    1    1.258222    4.375593   13.446716      1.00       1.0079
     244     1 O    8   14.088763    0.374726    1.299472      6.00      15.9994
     245     2 H    1   13.798941    1.191746    1.793098      1.00       1.0079
     246     2 H    1   14.804232    0.690670    0.642306      1.00       1.0079
     247     1 O    8    6.881240    7.154055   11.905200      6.00      15.9994
     248     2 H    1    6.302182    7.882226   11.581580      1.00       1.0079
     249     2 H    1    7.450901    7.472469   12.639772      1.00       1.0079
     250     1 O    8   12.102456    9.062612    8.597231      6.00      15.9994
     251     2 H    1   12.042017   10.062328    8.699593      1.00       1.0079
     252     2 H    1   11.383526    8.758918    9.177703      1.00       1.0079
     253     1 O    8   11.356539    2.597131   14.904430      6.00      15.9994
     254     2 H    1   11.629258    1.924927   14.347932      1.00       1.0079
     255     2 H    1   12.176945    3.013586   15.165986      1.00       1.0079
     256     1 O    8   11.959006    7.626515   13.226025      6.00      15.9994
     257     2 H    1   11.371512    7.993576   12.492545      1.00       1.0079
     258     2 H    1   12.613850    7.144891   12.680136      1.00       1.0079
     259     1 O    8   10.481841    9.885258    2.324218      6.00      15.9994
     260     2 H    1   10.677487    9.807575    3.328171      1.00       1.0079
     261     2 H    1   10.004946   10.709914    2.121238      1.00       1.0079
     262     1 O    8    8.311512   10.275854   13.471752      6.00      15.9994
     263     2 H    1    9.190254   10.545382   13.210857      1.00       1.0079
     264     2 H    1    8.479986    9.404387   13.981073      1.00       1.0079
     265     1 O    8    6.518407   13.745929    3.447179      6.00      15.9994
     266     2 H    1    6.718926   14.214813    2.596950      1.00       1.0079
     267     2 H    1    5.577904   13.468061    3.430578      1.00       1.0079
     268     1 O    8    1.194634   10.259500    7.073237      6.00      15.9994
     269     2 H    1    0.733895    9.377187    6.876756      1.00       1.0079
     270     2 H    1    1.701266   10.059616    7.902344      1.00       1.0079
     271     1 O    8    5.962259    2.186252   10.586590      6.00      15.9994
     272     2 H    1    5.840503    2.412640   11.515528      1.00       1.0079
     273     2 H    1    6.100239    3.059752   10.039515      1.00       1.0079
     274     1 O    8    5.467625   11.737978    7.595091      6.00      15.9994
     275     2 H    1    5.395488   12.645705    7.960716      1.00       1.0079
     276     2 H    1    6.178649   11.882322    6.958265      1.00       1.0079
     277     1 O    8    1.951509    7.897337   12.824708      6.00      15.9994
     278     2 H    1    2.382666    7.234569   12.190267      1.00       1.0079
     279     2 H    1    1.245185    7.371034   13.260195      1.00       1.0079
     280     1 O    8    7.700815   14.862762    1.283281      6.00      15.9994
     281     2 H    1    7.856895   13.930917    0.958244      1.00       1.0079
     282     2 H    1    8.588613   15.309230    1.437313      1.00       1.0079
     283     1 O    8    5.411199    8.355533    5.654744      6.00      15.9994
     284     2 H    1    4.746590    9.099725    5.750019      1.00       1.0079
     285     2 H    1    6.276205    8.759352    5.492098      1.00       1.0079
     286     1 O    8   14.382530    3.576880   12.397697      6.00      15.9994
     287     2 H    1   14.168570    2.662406   12.561423      1.00       1.0079
     288     2 H    1   14.910768    3.620935   11.608878      1.00       1.0079
     289     1 O    8   10.232460    0.975603    1.932709      6.00      15.9994
     290     2 H    1   10.799528    1.395874    1.244559      1.00       1.0079
     291     2 H    1   10.476733    0.045452    1.919633      1.00       1.0079
     292     1 O    8    4.327722    8.061173    9.466919      6.00      15.9994
     293     2 H    1    4.341038    7.806054    8.511937      1.00       1.0079
     294     2 H    1    4.907911    8.879614    9.349774      1.00       1.0079
     295     1 O    8    1.917905    6.640642    5.536768      6.00      15.9994
     296     2 H    1    1.193735    7.245879    5.728085      1.00       1.0079
     297     2 H    1    2.684860    6.702942    6.206609      1.00       1.0079
     298     1 O    8    5.149138   14.578003    7.991298      6.00      15.9994
     299     2 H    1    4.947067   15.201871    7.232287      1.00       1.0079
     300     2 H    1    5.997183   15.032601    8.399890      1.00       1.0079
     301     1 O    8   14.503567    0.467497    7.022514      6.00      15.9994
     302     2 H    1   13.569430    0.480521    6.826495      1.00       1.0079
     303     2 H    1   14.930716    0.071256    6.256105      1.00       1.0079
     304     1 O    8    6.216420   10.149486    9.794666      6.00      15.9994
     305     2 H    1    5.336354   10.260907   10.339026      1.00       1.0079
     306     2 H    1    6.064210   10.509054    8.928018      1.00       1.0079
     307     1 O    8   12.997870   13.770937   12.783336      6.00      15.9994
     308     2 H    1   13.305906   13.206167   13.527691      1.00       1.0079
     309     2 H    1   13.584980   13.704771   11.977172      1.00       1.0079
     310     1 O    8    4.414840    1.199817    6.057885      6.00      15.9994
     311     2 H    1    3.880245    0.983301    5.221274      1.00       1.0079
     312     2 H    1    5.375177    1.170771    5.907942      1.00       1.0079
     313     1 O    8    6.922107   15.400019    5.630860      6.00      15.9994
     314     2 H    1    7.151936   16.339232    5.432821      1.00       1.0079
     315     2 H    1    6.530423   15.112083    4.804221      1.00       1.0079
     316     1 O    8   12.419942    1.348070    9.993639      6.00      15.9994
     317     2 H    1   13.007996    0.655438    9.771082      1.00       1.0079
     318     2 H    1   11.633916    0.999971    9.505743      1.00       1.0079
     319     1 O    8    6.836184   12.688999   11.805113      6.00      15.9994
     320     2 H    1    6.867301   11.758558   11.462735      1.00       1.0079
     321     2 H    1    6.078739   12.927915   11.233974      1.00       1.0079
     322     1 O    8    6.922356    6.556817    1.293763      6.00      15.9994
     323     2 H    1    7.836369    6.816443    1.546831      1.00       1.0079
     324     2 H    1    6.313634    7.174269    1.744191      1.00       1.0079
     325     1 O    8   10.647925   13.921604    2.162693      6.00      15.9994
     326     2 H    1   11.004430   13.208938    2.764704      1.00       1.0079
     327     2 H    1   10.672926   13.572966    1.230950      1.00       1.0079
     328     1 O    8    4.032671    3.677602    7.865905      6.00      15.9994
     329     2 H    1    3.295200    4.055221    8.375061      1.00       1.0079
     330     2 H    1    3.682856    2.931131    7.353240      1.00       1.0079
     331     1 O    8   10.634256    9.642195    4.905500      6.00      15.9994
     332     2 H    1   11.123952   10.479043    4.843815      1.00       1.0079
     333     2 H    1   11.434905    9.106747    5.139352      1.00       1.0079
     334     1 O    8   12.033316    1.489474    6.853493      6.00      15.9994
     335     2 H    1   11.224063    1.531771    7.407270      1.00       1.0079
     336     2 H    1   11.803297    0.765055    6.168764      1.00       1.0079
     337     1 O    8    1.702992   13.575583   12.109861      6.00      15.9994
     338     2 H    1    1.968898   12.656740   12.364631      1.00       1.0079
     339     2 H    1    2.083652   13.781038   11.219389      1.00       1.0079
     340     1 O    8    5.466591    0.704849    2.114694      6.00      15.9994
     341     2 H    1    6.350431    0.422669    1.747401      1.00       1.0079
     342     2 H    1    4.831949    0.659784    1.370472      1.00       1.0079
     343     1 O    8   11.106896   13.005278   10.833967      6.00      15.9994
     344     2 H    1   10.433021   13.725247   11.040921      1.00       1.0079
     345     2 H    1   11.900292   13.296394   11.395367      1.00       1.0079
     346     1 O    8    0.315051   12.783054    7.416721      6.00      15.9994
     347     2 H    1    0.190717   11.816362    7.289687      1.00       1.0079
     348     2 H    1   -0.575352   13.146474    7.414108      1.00       1.0079
     349     1 O    8    4.492339    7.744917   14.049402      6.00      15.9994
     350     2 H    1    3.665252    7.551201   13.614206      1.00       1.0079
     351     2 H    1    5.128756    7.051897   13.866607      1.00       1.0079
     352     1 O    8    0.549997    0.873630    9.416151      6.00      15.9994
     353     2 H    1    0.054159    0.755972    8.545347      1.00       1.0079
     354     2 H    1    1.482387    0.656319    9.246854      1.00       1.0079
     355     1 O    8   14.928688    7.649711    1.706855      6.00      15.9994
     356     2 H    1   15.362448    8.246510    2.369821      1.00       1.0079
     357     2 H    1   14.096300    8.127190    1.474590      1.00       1.0079
     358     1 O    8    4.147778   11.106503   11.123653      6.00      15.9994
     359     2 H    1    4.281574   12.114406   11.127567      1.00       1.0079
     360     2 H    1    4.566702   10.991739   12.003597      1.00       1.0079
     361     1 O    8    3.461649    2.981133   15.419036      6.00      15.9994
     362     2 H    1    2.917421    2.417456   16.049674      1.00       1.0079
     363     2 H    1    2.816517    3.151339   14.678053      1.00       1.0079
     364     1 O    8   12.051510   14.276932    5.499610      6.00      15.9994
     365     2 H    1   12.304311   14.085562    6.434791      1.00       1.0079
     366     2 H    1   11.037771   14.423910    5.498021      1.00       1.0079
     367     1 O    8    5.038962   12.345604   15.134295      6.00      15.9994
     368     2 H    1    4.897054   13.257380   14.810943      1.00       1.0079
     369     2 H    1    5.112125   11.875576   14.279501      1.00       1.0079
     370     1 O    8   12.872125   13.656960    7.876536      6.00      15.9994
     371     2 H    1   12.277242   12.853057    7.908563      1.00       1.0079
     372     2 H    1   12.700151   14.089181    8.772798      1.00       1.0079
     373     1 O    8    1.666065   14.844916   14.582007      6.00      15.9994
     374     2 H    1    1.658363   14.042460   15.150772      1.00       1.0079
     375     2 H    1    1.494623   14.460920   13.652773      1.00       1.0079



 PW_GRID: Information for grid number                                          1
 PW_GRID: Grid distributed over                                   128 processors
 PW_GRID: Real space group dimensions                                   128    1
 PW_GRID: the grid is blocked:                                                NO
 PW_GRID: Cutoff [a.u.]                                                    500.0
 PW_GRID: spherical cutoff:                                                   NO
 PW_GRID:   Bounds   1           -150     149                Points:         300
 PW_GRID:   Bounds   2           -150     149                Points:         300
 PW_GRID:   Bounds   3           -150     149                Points:         300
 PW_GRID: Volume element (a.u.^3)  0.9372E-03     Volume (a.u.^3)     25303.9229
 PW_GRID: Grid span                                                    FULLSPACE
 PW_GRID:   Distribution                         Average         Max         Min
 PW_GRID:   G-Vectors                           210937.5      211200      210900
 PW_GRID:   G-Rays                                 703.1         704         703
 PW_GRID:   Real Space Points                   210937.5      270000      180000

 PW_GRID: Information for grid number                                          2
 PW_GRID: Grid distributed over                                   128 processors
 PW_GRID: Real space group dimensions                                   128    1
 PW_GRID: the grid is blocked:                                                NO
 PW_GRID: Cutoff [a.u.]                                                    166.7
 PW_GRID: spherical cutoff:                                                   NO
 PW_GRID:   Bounds   1            -90      89                Points:         180
 PW_GRID:   Bounds   2            -90      89                Points:         180
 PW_GRID:   Bounds   3            -90      89                Points:         180
 PW_GRID: Volume element (a.u.^3)  0.4339E-02     Volume (a.u.^3)     25303.9229
 PW_GRID: Grid span                                                    FULLSPACE
 PW_GRID:   Distribution                         Average         Max         Min
 PW_GRID:   G-Vectors                            45562.5       45720       45360
 PW_GRID:   G-Rays                                 253.1         254         252
 PW_GRID:   Real Space Points                    45562.5       64800       32400

 PW_GRID: Information for grid number                                          3
 PW_GRID: Grid distributed over                                   128 processors
 PW_GRID: Real space group dimensions                                     8   16
 PW_GRID: the grid is blocked:                                                NO
 PW_GRID: Cutoff [a.u.]                                                     55.6
 PW_GRID: spherical cutoff:                                                   NO
 PW_GRID:   Bounds   1            -50      49                Points:         100
 PW_GRID:   Bounds   2            -50      49                Points:         100
 PW_GRID:   Bounds   3            -50      49                Points:         100
 PW_GRID: Volume element (a.u.^3)  0.2530E-01     Volume (a.u.^3)     25303.9229
 PW_GRID: Grid span                                                    FULLSPACE
 PW_GRID:   Distribution                         Average         Max         Min
 PW_GRID:   G-Vectors                             7812.5        7900        7700
 PW_GRID:   G-Rays                                  78.1          79          77
 PW_GRID:   Real Space Points                     7812.5        9100        7200

 PW_GRID: Information for grid number                                          4
 PW_GRID: Grid distributed over                                   128 processors
 PW_GRID: Real space group dimensions                                     8   16
 PW_GRID: the grid is blocked:                                                NO
 PW_GRID: Cutoff [a.u.]                                                     18.5
 PW_GRID: spherical cutoff:                                                   NO
 PW_GRID:   Bounds   1            -30      29                Points:          60
 PW_GRID:   Bounds   2            -30      29                Points:          60
 PW_GRID:   Bounds   3            -30      29                Points:          60
 PW_GRID: Volume element (a.u.^3)  0.1171         Volume (a.u.^3)     25303.9229
 PW_GRID: Grid span                                                    FULLSPACE
 PW_GRID:   Distribution                         Average         Max         Min
 PW_GRID:   G-Vectors                             1687.5        1740        1620
 PW_GRID:   G-Rays                                  28.1          29          27
 PW_GRID:   Real Space Points                     1687.5        1920        1260

 PW_GRID: Information for grid number                                          5
 PW_GRID: Grid distributed over                                   128 processors
 PW_GRID: Real space group dimensions                                     8   16
 PW_GRID: the grid is blocked:                                                NO
 PW_GRID: Cutoff [a.u.]                                                      6.2
 PW_GRID: spherical cutoff:                                                   NO
 PW_GRID:   Bounds   1            -18      17                Points:          36
 PW_GRID:   Bounds   2            -18      17                Points:          36
 PW_GRID:   Bounds   3            -18      17                Points:          36
 PW_GRID: Volume element (a.u.^3)  0.5424         Volume (a.u.^3)     25303.9229
 PW_GRID: Grid span                                                    FULLSPACE
 PW_GRID:   Distribution                         Average         Max         Min
 PW_GRID:   G-Vectors                              364.5         396         324
 PW_GRID:   G-Rays                                  10.1          11           9
 PW_GRID:   Real Space Points                      364.5         540         288

 RS_GRID: Information for grid number                                          1
 RS_GRID:   Bounds   1           -150     149                Points:         300
 RS_GRID:   Bounds   2           -150     149                Points:         300
 RS_GRID:   Bounds   3           -150     149                Points:         300
 RS_GRID: Real space distribution over                                  4 groups
 RS_GRID: Real space distribution along direction                              1
 RS_GRID: Border size                                                         20
 RS_GRID: Real space distribution over                                  4 groups
 RS_GRID: Real space distribution along direction                              2
 RS_GRID: Border size                                                         20
 RS_GRID: Real space distribution over                                  8 groups
 RS_GRID: Real space distribution along direction                              3
 RS_GRID: Border size                                                         20
 RS_GRID:   Distribution                         Average         Max         Min
 RS_GRID:   Planes                                 115.0         115         115
 RS_GRID:   Distribution                         Average         Max         Min
 RS_GRID:   Planes                                 115.0         115         115
 RS_GRID:   Distribution                         Average         Max         Min
 RS_GRID:   Planes                                  77.5          78          77

 RS_GRID: Information for grid number                                          2
 RS_GRID:   Bounds   1            -90      89                Points:         180
 RS_GRID:   Bounds   2            -90      89                Points:         180
 RS_GRID:   Bounds   3            -90      89                Points:         180
 RS_GRID: Real space distribution over                                  4 groups
 RS_GRID: Real space distribution along direction                              1
 RS_GRID: Border size                                                         18
 RS_GRID: Real space distribution over                                  4 groups
 RS_GRID: Real space distribution along direction                              2
 RS_GRID: Border size                                                         18
 RS_GRID: Real space distribution over                                  8 groups
 RS_GRID: Real space distribution along direction                              3
 RS_GRID: Border size                                                         18
 RS_GRID:   Distribution                         Average         Max         Min
 RS_GRID:   Planes                                  81.0          81          81
 RS_GRID:   Distribution                         Average         Max         Min
 RS_GRID:   Planes                                  81.0          81          81
 RS_GRID:   Distribution                         Average         Max         Min
 RS_GRID:   Planes                                  58.5          59          58

 RS_GRID: Information for grid number                                          3
 RS_GRID:   Bounds   1            -50      49                Points:         100
 RS_GRID:   Bounds   2            -50      49                Points:         100
 RS_GRID:   Bounds   3            -50      49                Points:         100
 RS_GRID: Real space fully replicated
 RS_GRID: Group size                                                           1

 RS_GRID: Information for grid number                                          4
 RS_GRID:   Bounds   1            -30      29                Points:          60
 RS_GRID:   Bounds   2            -30      29                Points:          60
 RS_GRID:   Bounds   3            -30      29                Points:          60
 RS_GRID: Real space fully replicated
 RS_GRID: Group size                                                           1

 RS_GRID: Information for grid number                                          5
 RS_GRID:   Bounds   1            -18      17                Points:          36
 RS_GRID:   Bounds   2            -18      17                Points:          36
[...]
 VAR1: |Q.X|:   0.13694530360937932     
 VAR1: |T0+Q.X|:   0.93847159462743901     

     Hotelling iter   1 1.00000000   0.103E+01       0.012      190.947
     Hotelling iter   2 1.00000000   0.367E+00       0.011      200.744
     Hotelling iter   3 1.00000000   0.888E-01       0.012      190.958
     Hotelling iter   4 1.00000000   0.891E-02       0.012      194.919
     Hotelling iter   5 1.00000000   0.130E-03       0.011      198.720
     Hotelling iter   6 1.00000000   0.414E-07       0.012      194.323
     Hotelling iter   7 1.00000000   0.850E-14       0.012      194.866
 Maximum norm of dE/dT:   5.45028487848129000E-004
 Grad orthogonality error:   3.28263374769761134E-005
 ....updating step direction....
 ....applying preconditioner....
 ....special case 1....
 Dir orthogonality error:   5.29529861895953142E-006
 ....final beta....  0.21696618869964840     
 Step orthogonality error:   7.19076325732738486E-006
 ALMO SCF CG    13   -362.909187260820  -0.151E-04   0.549E-03   0.350E-02     0.86399     1.439
 VAR1: |B*X|:   0.13692061666861119     
 VAR1: |Q.X|:   0.13692061666861119     
 VAR1: |T0+Q.X|:   0.93847887833872434     

     Hotelling iter   1 1.00000000   0.103E+01       0.011      200.002
     Hotelling iter   2 1.00000000   0.367E+00       0.011      199.601
     Hotelling iter   3 1.00000000   0.888E-01       0.012      192.779
     Hotelling iter   4 1.00000000   0.891E-02       0.012      195.276
     Hotelling iter   5 1.00000000   0.130E-03       0.012      197.257
     Hotelling iter   6 1.00000000   0.414E-07       0.012      194.039
     Hotelling iter   7 1.00000000   0.854E-14       0.012      196.055
 Maximum norm of dE/dT:   1.98499271281237828E-004
 Grad orthogonality error:   4.69882844023122268E-006
 Step orthogonality error:   7.24696839395865605E-006
 ALMO SCF LS    14   -362.909190851227   0.000E+00   0.198E-03  -0.412E-01     0.08017     1.145
 VAR1: |B*X|:   0.13691832604464535     
 VAR1: |Q.X|:   0.13691832604464535     
 VAR1: |T0+Q.X|:   0.93847955417149709     

     Hotelling iter   1 1.00000000   0.103E+01       0.012      193.462
     Hotelling iter   2 1.00000000   0.367E+00       0.012      195.667
     Hotelling iter   3 1.00000000   0.888E-01       0.012      195.267
     Hotelling iter   4 1.00000000   0.891E-02       0.012      193.612
     Hotelling iter   5 1.00000000   0.130E-03       0.012      196.433
     Hotelling iter   6 1.00000000   0.414E-07       0.012      194.489
     Hotelling iter   7 1.00000000   0.852E-14       0.012      194.716
 Maximum norm of dE/dT:   2.67489135067008671E-004
 Grad orthogonality error:   6.93052470403603258E-006
 ....updating step direction....
 ....applying preconditioner....
 ....special case 1....
 Dir orthogonality error:   1.51177067389378143E-006
 ....final beta....  0.20104677408196120     
 Step orthogonality error:   2.57229145048007374E-006
 ALMO SCF CG    15   -362.909190877300  -0.362E-05   0.268E-03  -0.224E-06     0.99137     1.447
 VAR1: |B*X|:   0.13690674979396969     
 VAR1: |Q.X|:   0.13690674979396969     
 VAR1: |T0+Q.X|:   0.93848242983173957     

     Hotelling iter   1 1.00000000   0.103E+01       0.016      143.042
     Hotelling iter   2 1.00000000   0.367E+00       0.011      198.482
     Hotelling iter   3 1.00000000   0.888E-01       0.012      193.685
     Hotelling iter   4 1.00000000   0.891E-02       0.011      197.936
     Hotelling iter   5 1.00000000   0.130E-03       0.012      194.002
     Hotelling iter   6 1.00000000   0.414E-07       0.012      196.880
     Hotelling iter   7 1.00000000   0.859E-14       0.012      193.123
 Maximum norm of dE/dT:   1.95061238322448508E-004
 Grad orthogonality error:   4.18785099554477979E-006
 Step orthogonality error:   2.57020663786732935E-006
 ALMO SCF LS    16   -362.909191562595   0.000E+00   0.196E-03   0.705E-01    -0.13148     1.145
 VAR1: |B*X|:   0.13690828510212741     
 VAR1: |Q.X|:   0.13690828510212741     
 VAR1: |T0+Q.X|:   0.93848204844533445     

     Hotelling iter   1 1.00000000   0.103E+01       0.011      199.479
     Hotelling iter   2 1.00000000   0.367E+00       0.012      194.452
     Hotelling iter   3 1.00000000   0.888E-01       0.012      196.545
     Hotelling iter   4 1.00000000   0.891E-02       0.012      193.362
     Hotelling iter   5 1.00000000   0.130E-03       0.012      194.716
     Hotelling iter   6 1.00000000   0.414E-07       0.012      194.011
     Hotelling iter   7 1.00000000   0.858E-14       0.011      198.257
 Maximum norm of dE/dT:   1.33714990165184275E-004
 Grad orthogonality error:   3.23084236581173909E-006
 ....updating step direction....
 ....applying preconditioner....
 ....special case 1....
 Dir orthogonality error:   6.99849455624413093E-007
 ....final beta....  0.17050586880237500     
 Step orthogonality error:   1.13813191623678372E-006
 ALMO SCF CG    17   -362.909191579001  -0.702E-06   0.134E-03   0.134E-07     0.90288     1.442
 VAR1: |B*X|:   0.13690501635832750     
 VAR1: |Q.X|:   0.13690501635832750     
 VAR1: |T0+Q.X|:   0.93848220452470554     

     Hotelling iter   1 1.00000000   0.103E+01       0.012      195.473
     Hotelling iter   2 1.00000000   0.367E+00       0.012      191.831
     Hotelling iter   3 1.00000000   0.888E-01       0.011      198.098
     Hotelling iter   4 1.00000000   0.891E-02       0.012      193.663
     Hotelling iter   5 1.00000000   0.130E-03       0.012      196.168
     Hotelling iter   6 1.00000000   0.414E-07       0.011      199.794
     Hotelling iter   7 1.00000000   0.861E-14       0.012      192.200
 Maximum norm of dE/dT:   7.26892329786022525E-005
 Grad orthogonality error:   8.91220701523252761E-007
 Step orthogonality error:   1.13770812277259543E-006
 ALMO SCF LS    18   -362.909191699588   0.000E+00   0.727E-04   0.133E-01    -0.02796     1.145
 VAR1: |B*X|:   0.13690511758827401     
 VAR1: |Q.X|:   0.13690511758827401     
 VAR1: |T0+Q.X|:   0.93848219969107294     

     Hotelling iter   1 1.00000000   0.103E+01       0.011      199.583
     Hotelling iter   2 1.00000000   0.367E+00       0.011      200.252
     Hotelling iter   3 1.00000000   0.888E-01       0.012      184.834
     Hotelling iter   4 1.00000000   0.891E-02       0.012      194.853
     Hotelling iter   5 1.00000000   0.130E-03       0.012      195.419
     Hotelling iter   6 1.00000000   0.414E-07       0.012      196.337
     Hotelling iter   7 1.00000000   0.856E-14       0.012      193.098
 Maximum norm of dE/dT:   6.62970817227232395E-005
 Grad orthogonality error:   9.10114910674770121E-007
 ....updating step direction....
 ....applying preconditioner....
 ....special case 1....
 Dir orthogonality error:   4.12895354085312185E-007
 ....final beta....  0.23292222399291487     
 Step orthogonality error:   6.43841682558315931E-007
 ALMO SCF CG    19   -362.909191699712  -0.121E-06   0.663E-04   0.334E-08     0.91867     1.444
 VAR1: |B*X|:   0.13690345175909974     
 VAR1: |Q.X|:   0.13690345175909974     
 VAR1: |T0+Q.X|:   0.93848141120033568     

     Hotelling iter   1 1.00000000   0.103E+01       0.012      194.247
     Hotelling iter   2 1.00000000   0.367E+00       0.011      197.594
     Hotelling iter   3 1.00000000   0.888E-01       0.012      193.856
     Hotelling iter   4 1.00000000   0.891E-02       0.012      188.590
     Hotelling iter   5 1.00000000   0.130E-03       0.012      191.774
     Hotelling iter   6 1.00000000   0.414E-07       0.012      192.462
     Hotelling iter   7 1.00000000   0.851E-14       0.012      197.393
 Maximum norm of dE/dT:   3.25195263621477410E-005
 Grad orthogonality error:   7.17746919652468499E-007
 Step orthogonality error:   6.43848210032045324E-007
 ALMO SCF LS    20   -362.909191728767   0.000E+00   0.324E-04   0.681E-02    -0.01430     1.146
 VAR1: |B*X|:   0.13690347769219047     
 VAR1: |Q.X|:   0.13690347769219047     
 VAR1: |T0+Q.X|:   0.93848142347530494     

     Hotelling iter   1 1.00000000   0.103E+01       0.012      197.357
     Hotelling iter   2 1.00000000   0.367E+00       0.012      196.754
     Hotelling iter   3 1.00000000   0.888E-01       0.012      196.601
     Hotelling iter   4 1.00000000   0.891E-02       0.011      200.194
     Hotelling iter   5 1.00000000   0.130E-03       0.012      194.580
     Hotelling iter   6 1.00000000   0.414E-07       0.012      194.947
     Hotelling iter   7 1.00000000   0.859E-14       0.012      196.939
 Maximum norm of dE/dT:   3.09811804529424789E-005
 Grad orthogonality error:   7.12599426378905469E-007
 ....updating step direction....
 ....applying preconditioner....
 ....special case 1....
 Dir orthogonality error:   2.19758567029921485E-007
 ....final beta....  0.25531248330969608     
 Step orthogonality error:   3.84141026463463408E-007
 ALMO SCF CG    21   -362.909191728774  -0.291E-07   0.309E-04   0.332E-08     0.94958     1.441
 VAR1: |B*X|:   0.13690697283902958     
 VAR1: |Q.X|:   0.13690697283902958     
 VAR1: |T0+Q.X|:   0.93848088242751027     

     Hotelling iter   1 1.00000000   0.103E+01       0.012      195.939
     Hotelling iter   2 1.00000000   0.367E+00       0.011      197.634
     Hotelling iter   3 1.00000000   0.888E-01       0.012      196.526
     Hotelling iter   4 1.00000000   0.891E-02       0.012      193.328
     Hotelling iter   5 1.00000000   0.130E-03       0.011      197.984
     Hotelling iter   6 1.00000000   0.414E-07       0.012      192.977
     Hotelling iter   7 1.00000000   0.862E-14       0.012      197.365
 Maximum norm of dE/dT:   1.47621745098189204E-005
 Grad orthogonality error:   2.13213986838657374E-007
 Step orthogonality error:   3.84160302630682472E-007
 ALMO SCF LS    22   -362.909191735990   0.000E+00   0.148E-04   0.340E-01    -0.06524     1.139
 VAR1: |B*X|:   0.13690673270632173     
 VAR1: |Q.X|:   0.13690673270632173     
 VAR1: |T0+Q.X|:   0.93848091959998914     

     Hotelling iter   1 1.00000000   0.103E+01       0.012      195.622
     Hotelling iter   2 1.00000000   0.367E+00       0.012      193.887
     Hotelling iter   3 1.00000000   0.888E-01       0.011      197.615
     Hotelling iter   4 1.00000000   0.891E-02       0.012      194.036
     Hotelling iter   5 1.00000000   0.130E-03       0.012      197.017
     Hotelling iter   6 1.00000000   0.414E-07       0.011      198.717
     Hotelling iter   7 1.00000000   0.859E-14       0.012      193.958
 Maximum norm of dE/dT:   1.16193967885622104E-005
 Grad orthogonality error:   2.31476310079139387E-007
 ....updating step direction....
 ....applying preconditioner....
 ....special case 1....
 Dir orthogonality error:   1.07053056693009684E-007
 ....final beta....  0.19859358328110399     
 Step orthogonality error:   1.83344564737077309E-007
 ALMO SCF CG    23   -362.909191736030  -0.726E-08   0.116E-04   0.139E-07     0.92856     1.446
 VAR1: |B*X|:   0.13690693668327847     
 VAR1: |Q.X|:   0.13690693668327847     
 VAR1: |T0+Q.X|:   0.93848089319795158     

     Hotelling iter   1 1.00000000   0.103E+01       0.012      195.828
     Hotelling iter   2 1.00000000   0.367E+00       0.012      196.071
     Hotelling iter   3 1.00000000   0.888E-01       0.012      193.302
     Hotelling iter   4 1.00000000   0.891E-02       0.012      195.299
     Hotelling iter   5 1.00000000   0.130E-03       0.011      199.996
     Hotelling iter   6 1.00000000   0.414E-07       0.012      196.421
     Hotelling iter   7 1.00000000   0.851E-14       0.012      194.842
 Maximum norm of dE/dT:   4.59861618845293664E-006
 Grad orthogonality error:   1.11969789394834553E-007
 ALMO SCF CG    24   -362.909191737513  -0.726E-08   0.459E-05   0.139E-07     0.92856     0.978
 _ENERGY-0:   -2151.4212729652290     
 _ENERGY-D:   -1.4746996537524910     
 _ENERGY-F:   -2152.8959726189814     

 DECOMPOSITION OF THE DELOCALIZATION ENERGY

 ENERGY| Total FORCE_EVAL ( QS ) energy (a.u.):            -2151.421273027515326


 -------------------------------------------------------------------------------
 ----                             MULTIGRID INFO                            ----
 -------------------------------------------------------------------------------
 count for grid        1:        1664384          cutoff [a.u.]          500.00
 count for grid        2:        1514816          cutoff [a.u.]          166.67
 count for grid        3:        1403656          cutoff [a.u.]           55.56
 count for grid        4:        1380798          cutoff [a.u.]           18.52
 count for grid        5:        2634694          cutoff [a.u.]            6.17
 total gridlevel count  :        8598348

 -------------------------------------------------------------------------------
 -                                                                             -
 -                         MESSAGE PASSING PERFORMANCE                         -
 -                                                                             -
 -------------------------------------------------------------------------------

 ROUTINE             CALLS  TOT TIME [s]  AVE VOLUME [Bytes]  PERFORMANCE [MB/s]
 MP_Group                5         0.000
 MP_Bcast               50         0.011            4195123.            18831.26
 MP_Allreduce          217         1.140               7637.                1.45
 MP_Gather               4         0.006               3584.                2.59
 MP_Sync                 5         0.000
 MP_Alltoall           750        25.494            9524212.              280.19
 MP_ISendRecv        20574         0.054              30827.            11712.75
 MP_Wait             25152         5.601
 MP_ISend             4142         0.115             172519.             6221.56
 MP_IRecv             4142         0.159             172389.             4495.26
 -------------------------------------------------------------------------------


 -------------------------------------------------------------------------------
 -                                                                             -
 -                           R E F E R E N C E S                               -
 -                                                                             -
 -------------------------------------------------------------------------------
 
 CP2K version 2.2.268 (Development Version), the CP2K developers group (2011).
 CP2K is freely available from http://cp2k.berlios.de/ .

 VandeVondele, J; Hutter, J. 
 JOURNAL OF CHEMICAL PHYSICS, 127 (11), 114105 (2007). 
 Gaussian basis sets for accurate calculations on molecular systems in
 gas and condensed phases.
 http://dx.doi.org/10.1063/1.2770708


 Krack, M. 
 THEORETICAL CHEMISTRY ACCOUNTS, 114 (1-3), 145-152 (2005). 
 Pseudopotentials for H to Kr optimized for gradient-corrected
 exchange-correlation functionals.
 http://dx.doi.org/10.1007/s00214-005-0655-y


 VandeVondele, J; Krack, M; Mohamed, F; Parrinello, M; Chassaing, T;
 Hutter, J. COMPUTER PHYSICS COMMUNICATIONS, 167 (2), 103-128 (2005). 
 QUICKSTEP: Fast and accurate density functional calculations using a
 mixed Gaussian and plane waves approach.
 http://dx.doi.org/10.1016/j.cpc.2004.12.014


 Frigo, M; Johnson, SG. 
 PROCEEDINGS OF THE IEEE, 93 (2), 216-231 (2005). 
 The design and implementation of FFTW3.
 http://dx.doi.org/10.1109/JPROC.2004.840301


 Hartwigsen, C; Goedecker, S; Hutter, J. 
 PHYSICAL REVIEW B, 58 (7), 3641-3662 (1998). 
 Relativistic separable dual-space Gaussian pseudopotentials from H to Rn.
 http://dx.doi.org/10.1103/PhysRevB.58.3641


 Lippert, G; Hutter, J; Parrinello, M. 
 MOLECULAR PHYSICS, 92 (3), 477-487 (1997). 
 A hybrid Gaussian and plane wave density functional scheme.
 http://dx.doi.org/10.1080/002689797170220


 Goedecker, S; Teter, M; Hutter, J. 
 PHYSICAL REVIEW B, 54 (3), 1703-1710 (1996). 
 Separable dual-space Gaussian pseudopotentials.
 http://dx.doi.org/10.1103/PhysRevB.54.1703


 BECKE, AD. PHYSICAL REVIEW A, 38 (6), 3098-3100 (1988). 
 DENSITY-FUNCTIONAL EXCHANGE-ENERGY APPROXIMATION WITH CORRECT
 ASYMPTOTIC-BEHAVIOR.
 http://dx.doi.org/10.1103/PhysRevA.38.3098


 LEE, CT; YANG, WT; PARR, RG. 
 PHYSICAL REVIEW B, 37 (2), 785-789 (1988). 
 DEVELOPMENT OF THE COLLE-SALVETTI CORRELATION-ENERGY FORMULA INTO A
 FUNCTIONAL OF THE ELECTRON-DENSITY.
 http://dx.doi.org/10.1103/PhysRevB.37.785


 -------------------------------------------------------------------------------
 -                                                                             -
 -                                T I M I N G                                  -
 -                                                                             -
 -------------------------------------------------------------------------------
 SUBROUTINE                       CALLS  ASD         SELF TIME        TOTAL TIME
                                              AVERAGE  MAXIMUM  AVERAGE  MAXIMUM
 CP2K                                 1  1.0    0.033    0.040  349.130  349.176
 qs_energies_scf                      1  2.0    0.000    0.001  348.406  348.476
 almo_entry_scf                       1  3.0    0.000    0.000  344.231  344.300
 almo_scf_main                        1  4.0    0.000    0.000  285.352  285.427
 almo_scf_dm_to_ks                   26  6.0    0.000    0.000  279.254  279.528
 almo_scf_main_block_diagonal         1  5.0    0.000    0.001  237.761  237.831
 qs_ks_update_qs_env                 27  7.0    0.000    0.001  169.971  170.244
 qs_ks_build_kohn_sham_matrix        27  8.0    0.033    0.041  169.939  170.212
 sum_up_and_integrate                27  9.0    0.168    0.210  136.811  137.079
 integrate_v_rspace                  27 10.0  120.524  122.353  136.643  136.932
 qs_rho_update_rho                   27  7.0    0.000    0.001  119.100  119.121
 calculate_rho_elec                  27  8.0   99.016  101.391  119.099  119.121
 almo_scf_main_quenched_almos         2  5.0    0.035    0.062   94.513   94.552
 cp_dbcsr_multiply_d               1937  7.4    0.009    0.010   46.958   47.233
 almo_post_scf                        1  4.0    0.001    0.001   46.963   46.996
 fft_wrap_pw1pw2                    514 11.0    0.015    0.020   37.903   38.467
 fft_wrap_pw1pw2_500                298 11.9    2.246    2.721   35.964   36.473
 fft3d_ps                           514 13.0   10.156   12.156   31.810   32.612
 qs_vxc_create                       27  9.0    0.002    0.002   28.642   28.780
 xc_vxc_pw_create                    27 10.0    0.464    0.549   28.640   28.778
 cp_dbcsr_mult_NS_NR                285  7.6   25.923   26.708   25.930   26.715
 density_rs2pw                       27  9.0    0.677    0.988   14.949   17.186
 xc_rho_set_and_dset_create          27 11.0    1.791    2.278   14.667   15.457
 rs_pw_transfer                     271 10.9    0.008    0.024   12.181   14.572
 almo_scf_t_to_p                     51  6.4    0.001    0.001   13.842   14.158
 almo_scf_init                        1  4.0    0.000    0.000   11.916   11.930
 x_to_yz                            189 14.1   11.402   11.752   11.402   11.752
 almo_scf_init_qs                     1  5.0    0.180    0.181   11.615   11.629
 distribute_matrix                   54 10.0    8.714   11.271    8.934   11.343
 yz_to_x                            163 13.8    9.842   11.054    9.842   11.054
 potential_pw2rs                     27 11.0    0.018    0.019   10.205   10.243
 -------------------------------------------------------------------------------

  **** **** ******  **  PROGRAM ENDED AT                 2012-06-12 21:18:07.394
 ***** ** ***  *** **   PROGRAM RAN ON                                  nid00029
 **    ****   ******    PROGRAM RAN BY                                  root ;-)
 ***** **    ** ** **   PROGRAM PROCESS ID                                 18763
  **** **  *******  **  PROGRAM STOPPED IN /scratch/weisshorn/rustamr/e298-1.304
                                           388
Application 983373 resources: utime ~43218s, stime ~1542s
