
  **** **** ******  **  PROGRAM STARTED AT               2012-06-12 21:46:53.461
 ***** ** ***  *** **   PROGRAM STARTED ON                              nid00029
 **    ****   ******    PROGRAM STARTED BY                              root ;-)
 ***** **    ** ** **   PROGRAM PROCESS ID                                 19192
  **** **  *******  **  PROGRAM STARTED IN /scratch/weisshorn/rustamr/e298-1.304
                                           388

 CP2K| version string:                CP2K version 2.2.268 (Development Version)
 CP2K| is freely available from                          http://cp2k.berlios.de/
 CP2K| Program compiled at                         Sun May 27 15:14:38 CEST 2012
 CP2K| Program compiled on                                                 rosa5
 CP2K| Program compiled for                                    rosa-new-gfortran
 CP2K| Last CVS entry                xas_tp_scf.F/1.101/Wed Jun 29 13:43:33 2011
 CP2K| Input file name                                           bulk.090012.inp

 GLOBAL| Force Environment number                                              1
 GLOBAL| Basis set file name            /users/rustamr/dev/cp2k/tests/QS/BASIS_M
 GLOBAL| Geminal file name                                         BASIS_GEMINAL
 GLOBAL| Potential file name            /users/rustamr/dev/cp2k/tests/QS/GTH_POT
 GLOBAL| MM Potential file name                                     MM_POTENTIAL
 GLOBAL| Coordinate file name                                      __STD_INPUT__
 GLOBAL| Method name                                                        CP2K
 GLOBAL| Project name                                                       bulk
 GLOBAL| Preferred FFT library                                             FFTW3
 GLOBAL| Run type                                                         ENERGY
 GLOBAL| All-to-all communication in single precision                          F
 GLOBAL| FFTs using library dependent lengths                                  F
 GLOBAL| Global print level                                               MEDIUM
 GLOBAL| Total number of message passing processes                           128
 GLOBAL| Number of threads for this process                                    1
 GLOBAL| This output is from process                                           0

 MEMORY| system memory details [Kb]
 MEMORY|                        rank 0           min           max       average
 MEMORY| MemTotal             33082792      33082792      33082792      33082792
 MEMORY| MemFree              30722452      30718484      30724836      30722463
 MEMORY| Buffers                     0             0             0             0
 MEMORY| Cached                 107056        106748        109108        107908
 MEMORY| Slab                   193900        192532        193900        193217
 MEMORY| SReclaimable             4604          4588          4864          4678
 MEMORY| MemLikelyFree        30834112      30829832      30838404      30835050

 DBCSR| Multiplication driver                                                SMM
 DBCSR| Multiplication stack size                                           1000
 DBCSR| Use subcommunicators                                                   F
 DBCSR| Use MPI combined types                                                 F
 DBCSR| Use MPI memory allocation                                              T


 *** Fundamental physical constants (SI units) ***

 *** Literature: B. J. Mohr and B. N. Taylor,
 ***             CODATA recommended values of the fundamental physical
 ***             constants: 2006, Web Version 5.1
 ***             http://physics.nist.gov/constants

 Speed of light in vacuum [m/s]                             2.99792458000000E+08
 Magnetic constant or permeability of vacuum [N/A**2]       1.25663706143592E-06
 Electric constant or permittivity of vacuum [F/m]          8.85418781762039E-12
 Planck constant (h) [J*s]                                  6.62606896000000E-34
 Planck constant (h-bar) [J*s]                              1.05457162825177E-34
 Elementary charge [C]                                      1.60217648700000E-19
 Electron mass [kg]                                         9.10938215000000E-31
 Electron g factor [ ]                                     -2.00231930436220E+00
 Proton mass [kg]                                           1.67262163700000E-27
 Fine-structure constant                                    7.29735253760000E-03
 Rydberg constant [1/m]                                     1.09737315685270E+07
 Avogrado constant [1/mol]                                  6.02214179000000E+23
 Boltzmann constant [J/K]                                   1.38065040000000E-23
 Atomic mass unit [kg]                                      1.66053878200000E-27
 Bohr radius [m]                                            5.29177208590000E-11

 *** Conversion factors ***

 [u] -> [a.u.]                                              1.82288848426455E+03
 [Angstrom] -> [Bohr] = [a.u.]                              1.88972613288564E+00
 [a.u.] = [Bohr] -> [Angstrom]                              5.29177208590000E-01
 [a.u.] -> [s]                                              2.41888432650478E-17
 [a.u.] -> [fs]                                             2.41888432650478E-02
 [a.u.] -> [J]                                              4.35974393937059E-18
 [a.u.] -> [K]                                              3.15774647902944E+05
 [a.u.] -> [kJ/mol]                                         2.62549961709828E+03
 [a.u.] -> [kcal/mol]                                       6.27509468713739E+02
 [a.u.] -> [Pa]                                             2.94210107994716E+13
 [a.u.] -> [bar]                                            2.94210107994716E+08
 [a.u.] -> [atm]                                            2.90362800883016E+08
 [a.u.] -> [eV]                                             2.72113838565563E+01
 [a.u.] -> [Hz]                                             6.57968392072181E+15
 [a.u.] -> [1/cm] (wave numbers)                            2.19474631370540E+05
 [a.u./Bohr**2] -> [1/cm]                                   5.14048714338585E+03
 

 CELL| Volume [angstrom^3]:                                             3749.654
 CELL| Vector a [angstrom]:      15.536     0.000     0.000    |a| =      15.536
 CELL| Vector b [angstrom]:       0.000    15.536     0.000    |b| =      15.536
 CELL| Vector c [angstrom]:       0.000     0.000    15.536    |c| =      15.536
 CELL| Angle (b,c), alpha [degree]:                                       90.000
 CELL| Angle (a,c), beta  [degree]:                                       90.000
 CELL| Angle (a,b), gamma [degree]:                                       90.000

 CELL_REF| Volume [angstrom^3]:                                         3749.654
 CELL_REF| Vector a [angstrom    15.536     0.000     0.000    |a| =      15.536
 CELL_REF| Vector b [angstrom     0.000    15.536     0.000    |b| =      15.536
 CELL_REF| Vector c [angstrom     0.000     0.000    15.536    |c| =      15.536
 CELL_REF| Angle (b,c), alpha [degree]:                                   90.000
 CELL_REF| Angle (a,c), beta  [degree]:                                   90.000
 CELL_REF| Angle (a,b), gamma [degree]:                                   90.000

 CELL_TOP| Volume [angstrom^3]:                                         3749.654
 CELL_TOP| Vector a [angstrom    15.536     0.000     0.000    |a| =      15.536
 CELL_TOP| Vector b [angstrom     0.000    15.536     0.000    |b| =      15.536
 CELL_TOP| Vector c [angstrom     0.000     0.000    15.536    |c| =      15.536
 CELL_TOP| Angle (b,c), alpha [degree]:                                   90.000
 CELL_TOP| Angle (a,c), beta  [degree]:                                   90.000
 CELL_TOP| Angle (a,b), gamma [degree]:                                   90.000

 GENERATE|  Preliminary Number of Bonds generated:                           250
 GENERATE|  Achieved consistency in connectivity generation.
 GENERATE|  Number of Bonds generated:                                       250
 REORDER |  
 REORDER |  Reordering Molecules. The Reordering of molecules will override all
 REORDER |  information regarding molecule names and residue names.
 REORDER |  New ones will be provided on the basis of the connectivity!
 REORDER |  Number of unique molecules found:      1.
 REORDER |  

 GENERATE|  Preliminary Number of Bonds generated:                           250
 GENERATE|  Achieved consistency in connectivity generation.
 GENERATE|  Number of Bonds generated:                                       250
 GENERATE|  Preliminary Number of Bends generated:                           125
 GENERATE|  Number of Bends generated:                                       125
 GENERATE|  Number of UB generated:                                          125
 GENERATE|  Preliminary Number of Torsions generated:                          0
 GENERATE|  Number of Torsions generated:                                      0
 GENERATE|  Number of Impropers generated:                                     0
 GENERATE|  Number of 1-4 interactions generated:                              0

 *******************************************************************************
 *******************************************************************************
 **                                                                           **
 **     #####                         ##              ##                      **
 **    ##   ##            ##          ##              ##                      **
 **   ##     ##                       ##            ######                    **
 **   ##     ##  ##   ##  ##   #####  ##  ##   ####   ##    #####    #####    **
 **   ##     ##  ##   ##  ##  ##      ## ##   ##      ##   ##   ##  ##   ##   **
 **   ##  ## ##  ##   ##  ##  ##      ####     ###    ##   ######   ######    **
 **    ##  ###   ##   ##  ##  ##      ## ##      ##   ##   ##       ##        **
 **     #######   #####   ##   #####  ##  ##  ####    ##    #####   ##        **
 **           ##                                                    ##        **
 **                                                                           **
 **                                                ... make the atoms dance   **
 **                                                                           **
 **            Copyright (C) by CP2K Developers Group (2000 - 2011)           **
 **                                                                           **
 *******************************************************************************

 DFT| Spin restricted Kohn-Sham (RKS) calculation                            RKS
 DFT| Multiplicity                                                             1
 DFT| Number of spin states                                                    1
 DFT| Charge                                                                   0
 DFT| Self-interaction correction (SIC)                                       NO
 DFT| Cutoffs: density                                              1.000000E-10
 DFT|          gradient                                             1.000000E-10
 DFT|          tau                                                  1.000000E-10
 DFT|          cutoff_smoothing_range                               0.000000E+00
 DFT| XC density smoothing                                                  NONE
 DFT| XC derivatives                                                          PW
 FUNCTIONAL| ROUTINE=NEW
 FUNCTIONAL| BECKE88:
 FUNCTIONAL| A. Becke, Phys. Rev. A 38, 3098 (1988) {LDA version}
 FUNCTIONAL| LYP:
 FUNCTIONAL| C. Lee, W. Yang, R.G. Parr, Phys. Rev. B, 37, 785 (1988) {LDA versi
 FUNCTIONAL| on}

 QS| Method:                                                                 GPW
 QS| Density plane wave grid type                        NON-SPHERICAL FULLSPACE
 QS| Number of grid levels:                                                    5
 QS| Density cutoff [a.u.]:                                                500.0
 QS| Multi grid cutoff [a.u.]: 1) grid level                               500.0
 QS|                           2) grid level                               166.7
 QS|                           3) grid level                                55.6
 QS|                           4) grid level                                18.5
 QS|                           5) grid level                                 6.2
 QS| Grid level progression factor:                                          3.0
 QS| Relative density cutoff [a.u.]:                                        15.0
 QS| Consistent realspace mapping and integration 
 QS| Interaction thresholds: eps_pgf_orb:                                1.0E-05
 QS|                         eps_filter_matrix:                          0.0E+00
 QS|                         eps_core_charge:                            1.0E-12
 QS|                         eps_rho_gspace:                             1.0E-10
 QS|                         eps_rho_rspace:                             1.0E-10
 QS|                         eps_gvg_rspace:                             1.0E-05
 QS|                         eps_ppl:                                    1.0E-02
 QS|                         eps_ppnl:                                   1.0E-07


 ATOMIC KIND INFORMATION

  1. Atomic kind: O                                     Number of atoms:     125

     Orbital basis set information for                          TZV2P-MOLOPT-GTH

       Number of orbital shell sets:                                           1
       Number of orbital shells:                                               8
       Number of primitive Cartesian functions:                                7
       Number of Cartesian basis functions:                                   24
       Number of spherical basis functions:                                   22

       Normalised Cartesian orbitals:

                        Set   Shell   Orbital            Exponent    Coefficient

                          1       1    2s               12.015955      -0.284499
                                                         5.108150      -0.322498
                                                         2.048398       0.148191
                                                         0.832382       0.295475
                                                         0.352316       0.150829
                                                         0.142977       0.015788
                                                         0.046761      -0.000019

                          1       2    3s               12.015955       0.725622
                                                         5.108150       0.644384
                                                         2.048398      -0.157350
                                                         0.832382      -0.853528
                                                         0.352316       0.146068
                                                         0.142977       0.153978
                                                         0.046761       0.000658

                          1       3    4s               12.015955       1.228006
                                                         5.108150       1.271453
                                                         2.048398      -0.537390
                                                         0.832382      -1.759282
                                                         0.352316       1.533697
                                                         0.142977      -0.562509
                                                         0.046761       0.081954

                          1       4    3px              12.015955       1.192141
                                                         5.108150       1.354170
                                                         2.048398       0.897267
                                                         0.832382       0.408839
                                                         0.352316       0.116648
                                                         0.142977       0.022184
                                                         0.046761       0.000308
                          1       4    3py              12.015955       1.192141
                                                         5.108150       1.354170
                                                         2.048398       0.897267
                                                         0.832382       0.408839
                                                         0.352316       0.116648
                                                         0.142977       0.022184
                                                         0.046761       0.000308
                          1       4    3pz              12.015955       1.192141
                                                         5.108150       1.354170
                                                         2.048398       0.897267
                                                         0.832382       0.408839
                                                         0.352316       0.116648
                                                         0.142977       0.022184
                                                         0.046761       0.000308

                          1       5    4px              12.015955      -1.062381
                                                         5.108150      -1.285791
                                                         2.048398      -0.727000
                                                         0.832382      -0.522764
                                                         0.352316       0.182681
                                                         0.142977       0.087560
                                                         0.046761       0.000981
                          1       5    4py              12.015955      -1.062381
                                                         5.108150      -1.285791
                                                         2.048398      -0.727000
                                                         0.832382      -0.522764
                                                         0.352316       0.182681
                                                         0.142977       0.087560
                                                         0.046761       0.000981
                          1       5    4pz              12.015955      -1.062381
                                                         5.108150      -1.285791
                                                         2.048398      -0.727000
                                                         0.832382      -0.522764
                                                         0.352316       0.182681
                                                         0.142977       0.087560
                                                         0.046761       0.000981

                          1       6    5px              12.015955      -0.063722
                                                         5.108150       0.363638
                                                         2.048398       0.015152
                                                         0.832382      -0.083580
                                                         0.352316       0.692078
                                                         0.142977      -0.184312
                                                         0.046761       0.007664
                          1       6    5py              12.015955      -0.063722
                                                         5.108150       0.363638
                                                         2.048398       0.015152
                                                         0.832382      -0.083580
                                                         0.352316       0.692078
                                                         0.142977      -0.184312
                                                         0.046761       0.007664
                          1       6    5pz              12.015955      -0.063722
                                                         5.108150       0.363638
                                                         2.048398       0.015152
                                                         0.832382      -0.083580
                                                         0.352316       0.692078
                                                         0.142977      -0.184312
                                                         0.046761       0.007664

                          1       7    4dx2             12.015955       1.125955
                                                         5.108150       1.160468
                                                         2.048398       0.999335
                                                         0.832382       0.756334
                                                         0.352316       0.048604
                                                         0.142977       0.010378
                                                         0.046761      -0.000027
                          1       7    4dxy             12.015955       1.950212
                                                         5.108150       2.009990
                                                         2.048398       1.730899
                                                         0.832382       1.310009
                                                         0.352316       0.084185
                                                         0.142977       0.017974
                                                         0.046761      -0.000046
                          1       7    4dxz             12.015955       1.950212
                                                         5.108150       2.009990
                                                         2.048398       1.730899
                                                         0.832382       1.310009
                                                         0.352316       0.084185
                                                         0.142977       0.017974
                                                         0.046761      -0.000046
                          1       7    4dy2             12.015955       1.125955
                                                         5.108150       1.160468
                                                         2.048398       0.999335
                                                         0.832382       0.756334
                                                         0.352316       0.048604
                                                         0.142977       0.010378
                                                         0.046761      -0.000027
                          1       7    4dyz             12.015955       1.950212
                                                         5.108150       2.009990
                                                         2.048398       1.730899
                                                         0.832382       1.310009
                                                         0.352316       0.084185
                                                         0.142977       0.017974
                                                         0.046761      -0.000046
                          1       7    4dz2             12.015955       1.125955
                                                         5.108150       1.160468
                                                         2.048398       0.999335
                                                         0.832382       0.756334
                                                         0.352316       0.048604
                                                         0.142977       0.010378
                                                         0.046761      -0.000027

                          1       8    5dx2             12.015955      -2.135425
                                                         5.108150       0.581743
                                                         2.048398      -1.302492
                                                         0.832382       0.098118
                                                         0.352316       0.292085
                                                         0.142977      -0.022029
                                                         0.046761      -0.003795
                          1       8    5dxy             12.015955      -3.698665
                                                         5.108150       1.007608
                                                         2.048398      -2.255983
                                                         0.832382       0.169945
                                                         0.352316       0.505906
                                                         0.142977      -0.038155
                                                         0.046761      -0.006574
                          1       8    5dxz             12.015955      -3.698665
                                                         5.108150       1.007608
                                                         2.048398      -2.255983
                                                         0.832382       0.169945
                                                         0.352316       0.505906
                                                         0.142977      -0.038155
                                                         0.046761      -0.006574
                          1       8    5dy2             12.015955      -2.135425
                                                         5.108150       0.581743
                                                         2.048398      -1.302492
                                                         0.832382       0.098118
                                                         0.352316       0.292085
                                                         0.142977      -0.022029
                                                         0.046761      -0.003795
                          1       8    5dyz             12.015955      -3.698665
                                                         5.108150       1.007608
                                                         2.048398      -2.255983
                                                         0.832382       0.169945
                                                         0.352316       0.505906
                                                         0.142977      -0.038155
                                                         0.046761      -0.006574
                          1       8    5dz2             12.015955      -2.135425
                                                         5.108150       0.581743
                                                         2.048398      -1.302492
                                                         0.832382       0.098118
                                                         0.352316       0.292085
                                                         0.142977      -0.022029
                                                         0.046761      -0.003795

     Potential information for                                       GTH-BLYP-q6

       Description:                       Goedecker-Teter-Hutter pseudopotential
                                           Goedecker et al., PRB 54, 1703 (1996)
                                          Hartwigsen et al., PRB 58, 3641 (1998)
                                                      Krack, TCA 114, 145 (2005)

       Gaussian exponent of the core charge distribution:               8.438331
       Electronic configuration (s p d ...):                               2   4

       Parameters of the local part of the GTH pseudopotential:

                          rloc        C1          C2          C3          C4
                        0.243420  -16.991892    2.566142

       Parameters of the non-local part of the GTH pseudopotential:

                   l      r(l)      h(i,j,l)

                   0    0.220831   18.388851
                   1    0.217201

  2. Atomic kind: H                                     Number of atoms:     250

     Orbital basis set information for                          TZV2P-MOLOPT-GTH

       Number of orbital shell sets:                                           1
       Number of orbital shells:                                               5
       Number of primitive Cartesian functions:                                7
       Number of Cartesian basis functions:                                    9
       Number of spherical basis functions:                                    9

       Normalised Cartesian orbitals:

                        Set   Shell   Orbital            Exponent    Coefficient

                          1       1    2s               11.478000       0.129129
                                                         3.700759       0.177012
                                                         1.446884       0.141285
                                                         0.716815       0.245670
                                                         0.247919       0.094768
                                                         0.066918       0.004062
                                                         0.021708      -0.000053

                          1       2    3s               11.478000      -0.079256
                                                         3.700759      -0.152992
                                                         1.446884       0.015066
                                                         0.716815      -0.331234
                                                         0.247919       0.210690
                                                         0.066918       0.058630
                                                         0.021708      -0.003429

                          1       3    4s               11.478000      -0.246880
                                                         3.700759       0.023016
                                                         1.446884      -1.109374
                                                         0.716815       1.524652
                                                         0.247919      -0.227968
                                                         0.066918      -0.037343
                                                         0.021708       0.005696

                          1       4    3px              11.478000       0.325290
                                                         3.700759       0.187466
                                                         1.446884       0.443300
                                                         0.716815       0.267738
                                                         0.247919       0.088285
                                                         0.066918       0.019092
                                                         0.021708       0.000629
                          1       4    3py              11.478000       0.325290
                                                         3.700759       0.187466
                                                         1.446884       0.443300
                                                         0.716815       0.267738
                                                         0.247919       0.088285
                                                         0.066918       0.019092
                                                         0.021708       0.000629
                          1       4    3pz              11.478000       0.325290
                                                         3.700759       0.187466
                                                         1.446884       0.443300
                                                         0.716815       0.267738
                                                         0.247919       0.088285
                                                         0.066918       0.019092
                                                         0.021708       0.000629

                          1       5    4px              11.478000      -1.727188
                                                         3.700759      -0.598393
                                                         1.446884      -3.813128
                                                         0.716815       1.901151
                                                         0.247919      -0.262425
                                                         0.066918       0.006339
                                                         0.021708       0.007345
                          1       5    4py              11.478000      -1.727188
                                                         3.700759      -0.598393
                                                         1.446884      -3.813128
                                                         0.716815       1.901151
                                                         0.247919      -0.262425
                                                         0.066918       0.006339
                                                         0.021708       0.007345
                          1       5    4pz              11.478000      -1.727188
                                                         3.700759      -0.598393
                                                         1.446884      -3.813128
                                                         0.716815       1.901151
                                                         0.247919      -0.262425
                                                         0.066918       0.006339
                                                         0.021708       0.007345

     Potential information for                                       GTH-BLYP-q1

       Description:                       Goedecker-Teter-Hutter pseudopotential
                                           Goedecker et al., PRB 54, 1703 (1996)
                                          Hartwigsen et al., PRB 58, 3641 (1998)
                                                      Krack, TCA 114, 145 (2005)

       Gaussian exponent of the core charge distribution:              12.500000
       Electronic configuration (s p d ...):                                   1

       Parameters of the local part of the GTH pseudopotential:

                          rloc        C1          C2          C3          C4
                        0.200000   -4.195961    0.730498


 MOLECULE KIND INFORMATION

     1. Molecule kind: H2O                       Number of atoms:              3
                     Atom         Atomic kind name
                        1                        O
                        2                        H
                        3                        H

        The name was automatically generated: F
        Number of molecules:    125
        Molecule list:                1         2         3         4         5
                                      6         7         8         9        10
                                     11        12        13        14        15
                                     16        17        18        19        20
                                     21        22        23        24        25
                                     26        27        28        29        30
                                     31        32        33        34        35
                                     36        37        38        39        40
                                     41        42        43        44        45
                                     46        47        48        49        50
                                     51        52        53        54        55
                                     56        57        58        59        60
                                     61        62        63        64        65
                                     66        67        68        69        70
                                     71        72        73        74        75
                                     76        77        78        79        80
                                     81        82        83        84        85
                                     86        87        88        89        90
                                     91        92        93        94        95
                                     96        97        98        99       100
                                    101       102       103       104       105
                                    106       107       108       109       110
                                    111       112       113       114       115
                                    116       117       118       119       120
                                    121       122       123       124       125
        Number of bonds:            2
        Number of bends:            1
        Number of Urey-Bradley:     1


 MOLECULE KIND SET INFORMATION               Total Number of bonds:          250
                                             Total Number of bends:          125
                                             Total Number of Urey-Bradley:   125
                                             Total Number of torsions:         0
                                             Total Number of improper:         0
                                              Total Number of opbends:         0


 TOTAL NUMBERS AND MAXIMUM NUMBERS

  Total number of            - Atomic kinds:                                   2
                             - Atoms:                                        375
                             - Shell sets:                                   375
                             - Shells:                                      2250
                             - Primitive Cartesian functions:               2625
                             - Cartesian basis functions:                   5250
                             - Spherical basis functions:                   5000

  Maximum angular momentum of- Orbital basis functions:                        2
                             - Local part of the GTH pseudopotential:          2
                             - Non-local part of the GTH pseudopotential:      0


 MODULE QUICKSTEP:  ATOMIC COORDINATES IN angstrom

  Atom  Kind  Element       X           Y           Z          Z(eff)       Mass

       1     1 O    8    2.186634    1.249277    1.363276      6.00      15.9994
       2     2 H    1    1.758223    1.831895    2.046104      1.00       1.0079
       3     2 H    1    1.681714    1.432093    0.481643      1.00       1.0079
       4     1 O    8    7.847056    2.777816   15.105459      6.00      15.9994
       5     2 H    1    8.020700    1.831150   14.801613      1.00       1.0079
       6     2 H    1    8.562578    3.305344   14.694119      1.00       1.0079
       7     1 O    8    3.037661    6.017271   10.683705      6.00      15.9994
       8     2 H    1    3.311840    6.725567   10.076795      1.00       1.0079
       9     2 H    1    3.767228    5.720258   11.264015      1.00       1.0079
      10     1 O    8    4.512128   15.285793   14.001281      6.00      15.9994
      11     2 H    1    4.886614   16.240996   14.037504      1.00       1.0079
      12     2 H    1    3.534907   15.355283   14.346605      1.00       1.0079
      13     1 O    8    8.001081    9.173581    4.953968      6.00      15.9994
      14     2 H    1    8.967807    8.813695    4.811800      1.00       1.0079
      15     2 H    1    8.078597   10.155122    5.191058      1.00       1.0079
      16     1 O    8    1.888678    4.607119    8.130582      6.00      15.9994
      17     2 H    1    1.218171    4.656386    7.420966      1.00       1.0079
      18     2 H    1    1.945622    5.485285    8.540282      1.00       1.0079
      19     1 O    8    4.432155    6.281849    6.761408      6.00      15.9994
      20     2 H    1    4.922012    5.514212    6.395004      1.00       1.0079
      21     2 H    1    4.739050    7.103991    6.271755      1.00       1.0079
      22     1 O    8    6.189614   10.382187    3.061431      6.00      15.9994
      23     2 H    1    5.314825   10.801849    3.292325      1.00       1.0079
      24     2 H    1    6.123300    9.580851    3.657757      1.00       1.0079
      25     1 O    8    5.626329    2.838263   13.569099      6.00      15.9994
      26     2 H    1    4.968969    2.941057   14.286046      1.00       1.0079
      27     2 H    1    6.501990    2.728835   13.938803      1.00       1.0079
      28     1 O    8   13.977520    3.423970    8.572823      6.00      15.9994
      29     2 H    1   13.338742    2.745644    8.904400      1.00       1.0079
      30     2 H    1   14.632974    3.689384    9.257753      1.00       1.0079
      31     1 O    8   14.334751   14.883320    4.103090      6.00      15.9994
      32     2 H    1   13.384394   14.981160    4.270764      1.00       1.0079
      33     2 H    1   14.348176   14.974330    3.072089      1.00       1.0079
      34     1 O    8    7.527137   12.867035   14.923222      6.00      15.9994
      35     2 H    1    7.713120   12.134940   14.283560      1.00       1.0079
      36     2 H    1    6.577015   12.697468   15.268109      1.00       1.0079
      37     1 O    8    6.102061    4.534453    9.474838      6.00      15.9994
      38     2 H    1    5.379695    4.128588    8.915269      1.00       1.0079
      39     2 H    1    6.128204    5.515823    9.292984      1.00       1.0079
      40     1 O    8   13.212318   13.461574    0.237023      6.00      15.9994
      41     2 H    1   13.343571   14.384911    0.631479      1.00       1.0079
      42     2 H    1   12.942957   12.861615    0.948309      1.00       1.0079
      43     1 O    8   10.116538    5.609027    9.204241      6.00      15.9994
      44     2 H    1   10.804563    5.843343    8.568965      1.00       1.0079
      45     2 H    1    9.606841    4.847097    8.866874      1.00       1.0079
      46     1 O    8    4.362327   12.632697    3.066308      6.00      15.9994
      47     2 H    1    4.183776   12.105328    3.861295      1.00       1.0079
      48     2 H    1    3.773444   12.145682    2.459019      1.00       1.0079
      49     1 O    8    8.450165    7.311216    7.420958      6.00      15.9994
      50     2 H    1    8.892204    6.568714    7.905398      1.00       1.0079
      51     2 H    1    8.575414    6.987652    6.484104      1.00       1.0079
      52     1 O    8   11.003149   11.706892    8.737723      6.00      15.9994
      53     2 H    1   10.163178   11.073719    8.675921      1.00       1.0079
      54     2 H    1   10.862458   12.335301    9.457733      1.00       1.0079
      55     1 O    8    0.478742    5.778615   13.705903      6.00      15.9994
      56     2 H    1    0.307292    5.921355   14.678385      1.00       1.0079
      57     2 H    1   -0.331727    5.274759   13.439089      1.00       1.0079
      58     1 O    8   13.248269    3.804417    0.650285      6.00      15.9994
      59     2 H    1   13.150152    3.653690    1.669597      1.00       1.0079
      60     2 H    1   14.182037    4.062245    0.543015      1.00       1.0079
      61     1 O    8   10.694700   11.596670   12.928038      6.00      15.9994
      62     2 H    1   11.393296   10.899093   12.813077      1.00       1.0079
      63     2 H    1   10.816294   12.062922   12.074596      1.00       1.0079
      64     1 O    8    3.232118    0.922334    9.514583      6.00      15.9994
      65     2 H    1    3.488908    1.660696    8.941229      1.00       1.0079
      66     2 H    1    3.492879    0.090175    9.061383      1.00       1.0079
      67     1 O    8    5.355293   10.303925   13.446206      6.00      15.9994
      68     2 H    1    6.332242   10.241072   13.381019      1.00       1.0079
      69     2 H    1    5.120741    9.385767   13.583702      1.00       1.0079
      70     1 O    8    0.031011    3.783631    5.905603      6.00      15.9994
      71     2 H    1    0.408819    3.136893    5.288183      1.00       1.0079
      72     2 H    1   -0.369797    3.201119    6.591168      1.00       1.0079
      73     1 O    8   15.085384   11.790241   10.754456      6.00      15.9994
      74     2 H    1   14.757355   11.118217   11.346432      1.00       1.0079
      75     2 H    1   15.562785   12.297984   11.414632      1.00       1.0079
      76     1 O    8    7.824738    2.484289    5.232821      6.00      15.9994
      77     2 H    1    8.672225    2.432623    4.762495      1.00       1.0079
      78     2 H    1    7.156756    2.897494    4.677039      1.00       1.0079
      79     1 O    8    4.744628   14.635729   11.425435      6.00      15.9994
      80     2 H    1    4.511484   15.016685   12.303521      1.00       1.0079
      81     2 H    1    4.289093   15.306135   10.800926      1.00       1.0079
      82     1 O    8    2.331209   13.218225    9.353154      6.00      15.9994
      83     2 H    1    3.181657   13.148122    8.900284      1.00       1.0079
      84     2 H    1    1.678878   13.172576    8.581476      1.00       1.0079
      85     1 O    8   11.396503    6.011142    0.400358      6.00      15.9994
      86     2 H    1   12.078918    5.288673    0.507950      1.00       1.0079
      87     2 H    1   11.962051    6.698915   -0.048127      1.00       1.0079
      88     1 O    8    3.026751   11.224837    1.197945      6.00      15.9994
      89     2 H    1    3.080159   10.222751    1.068191      1.00       1.0079
      90     2 H    1    3.768150   11.605314    0.674720      1.00       1.0079
      91     1 O    8    5.224741    5.334071   12.340778      6.00      15.9994
      92     2 H    1    5.525637    4.546581   12.865651      1.00       1.0079
      93     2 H    1    5.960098    5.752824   11.773686      1.00       1.0079
      94     1 O    8    8.421447    3.814794    7.677181      6.00      15.9994
      95     2 H    1    8.261704    3.890959    6.718787      1.00       1.0079
      96     2 H    1    7.588323    3.960196    8.085627      1.00       1.0079
      97     1 O    8    2.889726    4.109320    3.835256      6.00      15.9994
      98     2 H    1    2.553998    4.788915    4.388718      1.00       1.0079
      99     2 H    1    2.771341    4.427139    2.923424      1.00       1.0079
     100     1 O    8    8.813694    9.521038    8.807330      6.00      15.9994
     101     2 H    1    7.893909    9.461492    9.103696      1.00       1.0079
     102     2 H    1    8.907591    8.687490    8.217942      1.00       1.0079
     103     1 O    8    9.610026    4.658778   14.344510      6.00      15.9994
     104     2 H    1   10.117697    5.103344   15.056256      1.00       1.0079
     105     2 H    1   10.209732    3.867611   14.297213      1.00       1.0079
     106     1 O    8    1.579756   10.059493    9.625688      6.00      15.9994
     107     2 H    1    0.990434   10.383635   10.387107      1.00       1.0079
     108     2 H    1    2.385264   10.503197    9.930733      1.00       1.0079
     109     1 O    8    8.064240   15.257769   13.652799      6.00      15.9994
     110     2 H    1    8.990415   15.037342   13.736570      1.00       1.0079
     111     2 H    1    7.793409   14.400872   13.763797      1.00       1.0079
     112     1 O    8    9.335623   14.271351    5.174762      6.00      15.9994
     113     2 H    1    8.775518   14.952085    5.661600      1.00       1.0079
     114     2 H    1    8.955320   14.293816    4.218351      1.00       1.0079
     115     1 O    8   14.235980    7.560405   10.389315      6.00      15.9994
     116     2 H    1   13.879721    6.668305   10.501943      1.00       1.0079
     117     2 H    1   13.462075    8.129353   10.093855      1.00       1.0079
     118     1 O    8    4.364970   11.114706    5.437540      6.00      15.9994
     119     2 H    1    3.475495   10.793631    5.689426      1.00       1.0079
     120     2 H    1    4.750391   11.388681    6.278432      1.00       1.0079
     121     1 O    8    1.068300    2.175041    3.839493      6.00      15.9994
     122     2 H    1    1.785356    2.960383    3.810187      1.00       1.0079
     123     2 H    1    1.603199    1.387235    4.087550      1.00       1.0079
     124     1 O    8   11.865578   12.261242    4.304448      6.00      15.9994
     125     2 H    1   12.682186   11.769439    4.014910      1.00       1.0079
     126     2 H    1   12.170226   13.064947    4.833236      1.00       1.0079
     127     1 O    8    9.809747    1.527929    8.745715      6.00      15.9994
     128     2 H    1    9.360127    2.397221    8.519201      1.00       1.0079
     129     2 H    1    9.043300    0.976225    8.813615      1.00       1.0079
     130     1 O    8    2.750946    5.017504    1.511445      6.00      15.9994
     131     2 H    1    3.065662    4.166278    0.998578      1.00       1.0079
     132     2 H    1    3.510189    5.619772    1.728095      1.00       1.0079
     133     1 O    8   14.349585   14.284379    9.887860      6.00      15.9994
     134     2 H    1   14.798236   13.399048   10.001181      1.00       1.0079
     135     2 H    1   15.102320   14.893161   10.118923      1.00       1.0079
     136     1 O    8   10.155118    8.009812   10.598014      6.00      15.9994
     137     2 H    1    9.979011    7.036638   10.315196      1.00       1.0079
     138     2 H    1    9.534000    8.622664   10.030536      1.00       1.0079
     139     1 O    8    0.146750   12.549724   15.500983      6.00      15.9994
     140     2 H    1    0.251452   11.635305   15.186125      1.00       1.0079
     141     2 H    1   -0.810081   12.718886   15.561419      1.00       1.0079
     142     1 O    8   12.627294    9.012804    0.824983      6.00      15.9994
     143     2 H    1   11.741756    9.300337    1.200858      1.00       1.0079
     144     2 H    1   12.696237    9.120937   -0.157357      1.00       1.0079
     145     1 O    8   13.382264    2.902288    3.339021      6.00      15.9994
     146     2 H    1   14.196947    2.595576    3.660068      1.00       1.0079
     147     2 H    1   12.945221    3.236141    4.196846      1.00       1.0079
     148     1 O    8    8.815699   14.258814   11.335064      6.00      15.9994
     149     2 H    1    8.457751   14.774615   12.065188      1.00       1.0079
     150     2 H    1    8.257263   13.475568   11.320498      1.00       1.0079
     151     1 O    8   13.401249   11.337589    2.310549      6.00      15.9994
     152     2 H    1   14.247055   10.925329    2.659045      1.00       1.0079
     153     2 H    1   13.004251   10.574448    1.860233      1.00       1.0079
     154     1 O    8    3.282362    8.609532    0.758663      6.00      15.9994
     155     2 H    1    3.353811    8.152155    1.643430      1.00       1.0079
     156     2 H    1    4.172129    8.739413    0.413533      1.00       1.0079
     157     1 O    8    0.889465    7.327743    8.915729      6.00      15.9994
     158     2 H    1    0.081504    7.548549    9.434943      1.00       1.0079
     159     2 H    1    1.542073    8.044629    9.000491      1.00       1.0079
     160     1 O    8    8.172998   11.844448    1.786872      6.00      15.9994
     161     2 H    1    7.444489   11.225077    2.088573      1.00       1.0079
     162     2 H    1    7.906632   12.297188    0.897441      1.00       1.0079
     163     1 O    8    9.876010    5.774740    4.944200      6.00      15.9994
     164     2 H    1    9.738611    6.292956    4.189553      1.00       1.0079
     165     2 H    1   10.012397    4.849949    4.524296      1.00       1.0079
     166     1 O    8    0.707157    9.220332    0.045500      6.00      15.9994
     167     2 H    1    0.143413    8.681447    0.711045      1.00       1.0079
     168     2 H    1    1.540203    8.666771    0.019018      1.00       1.0079
     169     1 O    8   10.592335   14.263422   14.262157      6.00      15.9994
     170     2 H    1   10.629403   13.403789   13.737392      1.00       1.0079
     171     2 H    1   11.037362   13.957134   15.029492      1.00       1.0079
     172     1 O    8    7.688299   12.028961    5.725562      6.00      15.9994
     173     2 H    1    8.389147   12.716187    5.731104      1.00       1.0079
     174     2 H    1    7.248438   12.347107    4.882209      1.00       1.0079
     175     1 O    8   13.093902    8.544820    6.669096      6.00      15.9994
     176     2 H    1   12.621532    7.690548    6.811836      1.00       1.0079
     177     2 H    1   13.031819    8.876682    7.591531      1.00       1.0079
     178     1 O    8    0.755068   12.752569    4.626096      6.00      15.9994
     179     2 H    1    0.295652   13.562403    4.474078      1.00       1.0079
     180     2 H    1    0.620876   12.706993    5.566224      1.00       1.0079
     181     1 O    8   11.828798    6.081628    6.953287      6.00      15.9994
     182     2 H    1   12.569901    5.458261    6.769785      1.00       1.0079
     183     2 H    1   11.146966    5.779036    6.203225      1.00       1.0079
     184     1 O    8    2.297659   10.963567   13.966212      6.00      15.9994
     185     2 H    1    2.724505   11.086992   14.820588      1.00       1.0079
     186     2 H    1    1.569734   10.370358   14.007069      1.00       1.0079
     187     1 O    8    7.410541    4.406852    1.877170      6.00      15.9994
     188     2 H    1    7.008581    3.770491    1.228912      1.00       1.0079
     189     2 H    1    7.274331    5.332879    1.602329      1.00       1.0079
     190     1 O    8    8.157880    7.427808   14.189727      6.00      15.9994
     191     2 H    1    7.590948    7.515413   14.978670      1.00       1.0079
     192     2 H    1    8.702103    6.661333   14.377940      1.00       1.0079
     193     1 O    8   12.626772    5.561267   11.151025      6.00      15.9994
     194     2 H    1   13.086684    4.858450   11.616588      1.00       1.0079
     195     2 H    1   11.967387    5.104175   10.544729      1.00       1.0079
     196     1 O    8    0.335329    1.351272   14.723226      6.00      15.9994
     197     2 H    1    0.553199    1.998168   14.033031      1.00       1.0079
     198     2 H    1    0.661702    0.462293   14.336762      1.00       1.0079
     199     1 O    8    9.504065    3.294643    3.313106      6.00      15.9994
     200     2 H    1    8.835271    3.615757    2.635124      1.00       1.0079
     201     2 H    1    9.929884    2.609932    2.770986      1.00       1.0079
     202     1 O    8    0.522576    3.410093   10.273819      6.00      15.9994
     203     2 H    1    1.264926    3.883938    9.835401      1.00       1.0079
     204     2 H    1    0.588610    2.480327    9.905653      1.00       1.0079
     205     1 O    8    0.218341    5.491147    0.794102      6.00      15.9994
     206     2 H    1   -0.102175    6.281472    1.179646      1.00       1.0079
     207     2 H    1    1.084056    5.197727    1.234319      1.00       1.0079
     208     1 O    8   12.926027    9.641657   13.675630      6.00      15.9994
     209     2 H    1   13.723867    9.683511   13.103296      1.00       1.0079
     210     2 H    1   12.689018    8.675813   13.584715      1.00       1.0079
     211     1 O    8    0.291821    8.026672    6.250897      6.00      15.9994
     212     2 H    1    0.584441    7.468926    7.005353      1.00       1.0079
     213     2 H    1   -0.653223    8.272517    6.499510      1.00       1.0079
     214     1 O    8   12.912617    3.845309    5.792529      6.00      15.9994
     215     2 H    1   12.401583    3.082384    6.179521      1.00       1.0079
     216     2 H    1   13.923531    3.746358    5.959855      1.00       1.0079
     217     1 O    8   12.734606    1.398372   12.486262      6.00      15.9994
     218     2 H    1   12.447314    1.555654   11.535206      1.00       1.0079
     219     2 H    1   13.126874    0.465104   12.488335      1.00       1.0079
     220     1 O    8    4.124441    7.433249    3.043974      6.00      15.9994
     221     2 H    1    4.732140    7.795238    3.768482      1.00       1.0079
     222     2 H    1    3.328757    7.135763    3.627060      1.00       1.0079
     223     1 O    8   15.433804    9.365584   12.045134      6.00      15.9994
     224     2 H    1   16.187658    8.851005   12.409358      1.00       1.0079
     225     2 H    1   15.062761    8.723530   11.387396      1.00       1.0079
     226     1 O    8    2.876032   15.531317    4.051770      6.00      15.9994
     227     2 H    1    2.394654   14.690974    3.933314      1.00       1.0079
     228     2 H    1    3.227708   15.704521    3.141206      1.00       1.0079
     229     1 O    8    9.497435    7.075129    2.594986      6.00      15.9994
     230     2 H    1    9.774336    6.575521    1.806749      1.00       1.0079
     231     2 H    1    9.704612    7.989241    2.450237      1.00       1.0079
     232     1 O    8    5.752949    3.850502    4.167469      6.00      15.9994
     233     2 H    1    6.045885    4.354431    3.362823      1.00       1.0079
     234     2 H    1    4.794577    3.709593    3.974256      1.00       1.0079
     235     1 O    8    0.037575    9.903499    3.683599      6.00      15.9994
     236     2 H    1    0.355069   10.814559    3.896590      1.00       1.0079
     237     2 H    1   -0.423132    9.532096    4.543596      1.00       1.0079
     238     1 O    8    7.256068    0.049028    9.625358      6.00      15.9994
     239     2 H    1    7.779359   -0.510731   10.277935      1.00       1.0079
     240     2 H    1    6.659695    0.664378   10.154022      1.00       1.0079
     241     1 O    8    2.035043    3.568970   13.244574      6.00      15.9994
     242     2 H    1    2.153391    3.602338   12.276135      1.00       1.0079
     243     2 H    1    1.652401    4.451425   13.474313      1.00       1.0079
     244     1 O    8   14.009296    0.384736    1.337588      6.00      15.9994
     245     2 H    1   13.878064    1.186097    1.875870      1.00       1.0079
     246     2 H    1   14.495148    0.624671    0.520203      1.00       1.0079
     247     1 O    8    6.974902    7.131437   11.406504      6.00      15.9994
     248     2 H    1    6.415282    7.865120   11.052006      1.00       1.0079
     249     2 H    1    7.390687    7.332832   12.284096      1.00       1.0079
     250     1 O    8   12.363834    9.473866    9.683380      6.00      15.9994
     251     2 H    1   11.911868   10.188582    9.218992      1.00       1.0079
     252     2 H    1   11.663319    9.030948   10.166375      1.00       1.0079
     253     1 O    8   11.303816    2.492373   14.805725      6.00      15.9994
     254     2 H    1   11.609687    1.789380   14.168151      1.00       1.0079
     255     2 H    1   12.082205    2.874783   15.240840      1.00       1.0079
     256     1 O    8   12.193722    7.121113   13.405392      6.00      15.9994
     257     2 H    1   11.265278    6.927574   13.519475      1.00       1.0079
     258     2 H    1   12.488467    6.649473   12.530239      1.00       1.0079
     259     1 O    8   10.028914    9.609933    1.871716      6.00      15.9994
     260     2 H    1   10.308437    9.711752    2.775955      1.00       1.0079
     261     2 H    1    9.478439   10.454092    1.849870      1.00       1.0079
     262     1 O    8    8.198849   10.170377   13.745873      6.00      15.9994
     263     2 H    1    8.962260   10.437715   13.188475      1.00       1.0079
     264     2 H    1    8.188112    9.158053   13.765330      1.00       1.0079
     265     1 O    8    6.918542   13.536404    3.529335      6.00      15.9994
     266     2 H    1    7.468593   13.183922    2.819998      1.00       1.0079
     267     2 H    1    5.976460   13.321227    3.230932      1.00       1.0079
     268     1 O    8    2.101768    9.966017    6.857789      6.00      15.9994
     269     2 H    1    1.465763    9.351303    6.456856      1.00       1.0079
     270     2 H    1    1.857300   10.007297    7.773778      1.00       1.0079
     271     1 O    8    5.899087    2.142892   10.661624      6.00      15.9994
     272     2 H    1    5.775419    2.276223   11.635461      1.00       1.0079
     273     2 H    1    6.334069    3.019461   10.278959      1.00       1.0079
     274     1 O    8    5.686476   12.130293    7.539750      6.00      15.9994
     275     2 H    1    5.469495   13.036028    7.874890      1.00       1.0079
     276     2 H    1    6.484583   12.155166    6.904469      1.00       1.0079
     277     1 O    8    1.953714    7.873382   12.882677      6.00      15.9994
     278     2 H    1    1.881491    7.479372   11.935144      1.00       1.0079
     279     2 H    1    1.553942    7.109924   13.295235      1.00       1.0079
     280     1 O    8    7.954631   15.506558    0.969836      6.00      15.9994
     281     2 H    1    8.018961   15.215855    0.060782      1.00       1.0079
     282     2 H    1    8.816995   16.014896    1.204720      1.00       1.0079
     283     1 O    8    5.354592    8.471603    5.398156      6.00      15.9994
     284     2 H    1    4.960030    9.355615    5.451783      1.00       1.0079
     285     2 H    1    6.258035    8.650801    5.569377      1.00       1.0079
     286     1 O    8   14.190461    3.759943   12.559357      6.00      15.9994
     287     2 H    1   13.652517    2.892239   12.450010      1.00       1.0079
     288     2 H    1   14.936376    3.553192   12.035735      1.00       1.0079
     289     1 O    8   10.245973    0.861075    2.253787      6.00      15.9994
     290     2 H    1   10.656729    0.922332    1.347327      1.00       1.0079
     291     2 H    1   10.219247   -0.067793    2.499615      1.00       1.0079
     292     1 O    8    4.297814    7.929535    9.108739      6.00      15.9994
     293     2 H    1    4.460413    7.298493    8.345832      1.00       1.0079
     294     2 H    1    4.767266    8.750791    9.141677      1.00       1.0079
     295     1 O    8    2.235103    6.704413    4.805758      6.00      15.9994
     296     2 H    1    1.452240    7.226076    4.938752      1.00       1.0079
     297     2 H    1    2.808902    6.454936    5.620456      1.00       1.0079
     298     1 O    8    4.762294   14.480108    8.279506      6.00      15.9994
     299     2 H    1    4.612495   14.715834    7.321431      1.00       1.0079
     300     2 H    1    5.503890   15.038104    8.557284      1.00       1.0079
     301     1 O    8   14.853800    1.091585    6.301322      6.00      15.9994
     302     2 H    1   13.947256    1.329508    6.676539      1.00       1.0079
     303     2 H    1   14.688503    0.532768    5.499135      1.00       1.0079
     304     1 O    8    5.977792   10.434274    9.586581      6.00      15.9994
     305     2 H    1    5.125723   10.647888   10.087216      1.00       1.0079
     306     2 H    1    5.760083   10.879196    8.740127      1.00       1.0079
     307     1 O    8   13.422720   14.348228   12.776116      6.00      15.9994
     308     2 H    1   13.449456   14.183798   13.709217      1.00       1.0079
     309     2 H    1   14.016905   13.760853   12.264523      1.00       1.0079
     310     1 O    8    4.562934    1.660803    5.934853      6.00      15.9994
     311     2 H    1    4.077767    1.224938    5.144261      1.00       1.0079
     312     2 H    1    5.523484    1.332806    5.864417      1.00       1.0079
     313     1 O    8    6.963910    0.118826    5.635332      6.00      15.9994
     314     2 H    1    7.412318    1.025768    5.341626      1.00       1.0079
     315     2 H    1    6.947152   -0.367596    4.773470      1.00       1.0079
     316     1 O    8   12.183356    1.478789    9.965755      6.00      15.9994
     317     2 H    1   12.498456    0.548785    9.911852      1.00       1.0079
     318     2 H    1   11.224365    1.401585    9.662428      1.00       1.0079
     319     1 O    8    6.753317   12.386522   11.568780      6.00      15.9994
     320     2 H    1    6.657502   11.756271   10.817445      1.00       1.0079
     321     2 H    1    5.943881   12.921797   11.724219      1.00       1.0079
     322     1 O    8    6.942291    7.131128    1.395931      6.00      15.9994
     323     2 H    1    7.770619    7.253493    1.906828      1.00       1.0079
     324     2 H    1    6.231140    7.498443    1.956523      1.00       1.0079
     325     1 O    8   10.231505   13.557610    2.353586      6.00      15.9994
     326     2 H    1   10.893843   13.001145    2.782774      1.00       1.0079
     327     2 H    1    9.443976   13.038597    2.089581      1.00       1.0079
     328     1 O    8    4.293610    3.335158    8.000175      6.00      15.9994
     329     2 H    1    3.516476    3.909532    7.992322      1.00       1.0079
     330     2 H    1    4.315347    2.657593    7.235131      1.00       1.0079
     331     1 O    8   10.575211    9.294461    4.585062      6.00      15.9994
     332     2 H    1   10.719732   10.275474    4.818901      1.00       1.0079
     333     2 H    1   11.383075    8.767386    4.866511      1.00       1.0079
     334     1 O    8   11.732041    1.593625    6.598458      6.00      15.9994
     335     2 H    1   11.024598    1.507116    7.317958      1.00       1.0079
     336     2 H    1   11.871126    0.717065    6.182198      1.00       1.0079
     337     1 O    8    1.594256   12.994779   12.110544      6.00      15.9994
     338     2 H    1    1.845412   12.285099   12.755239      1.00       1.0079
     339     2 H    1    1.854433   12.863050   11.187912      1.00       1.0079
     340     1 O    8    5.325870    0.696495    2.147961      6.00      15.9994
     341     2 H    1    6.112313    0.324018    1.757090      1.00       1.0079
     342     2 H    1    5.612367    1.509416    2.631634      1.00       1.0079
     343     1 O    8   11.208638   13.315684   10.903845      6.00      15.9994
     344     2 H    1   10.368556   13.744865   11.291702      1.00       1.0079
     345     2 H    1   11.972227   13.860021   11.319783      1.00       1.0079
     346     1 O    8    0.408209   12.361092    7.412542      6.00      15.9994
     347     2 H    1    0.826374   11.457567    7.598371      1.00       1.0079
     348     2 H    1   -0.572194   12.312540    7.586201      1.00       1.0079
     349     1 O    8    4.603261    7.640016   13.964358      6.00      15.9994
     350     2 H    1    3.767452    7.875552   13.480385      1.00       1.0079
     351     2 H    1    4.749501    6.730903   13.589641      1.00       1.0079
     352     1 O    8    0.570995    0.920951    9.307511      6.00      15.9994
     353     2 H    1    0.396091    0.795893    8.351347      1.00       1.0079
     354     2 H    1    1.599932    0.806633    9.421576      1.00       1.0079
     355     1 O    8   14.828341    7.719519    2.040059      6.00      15.9994
     356     2 H    1   15.309541    8.297187    2.707906      1.00       1.0079
     357     2 H    1   13.929864    8.078406    1.781027      1.00       1.0079
     358     1 O    8    3.912030   11.329599   11.129412      6.00      15.9994
     359     2 H    1    3.997756   12.296890   11.163423      1.00       1.0079
     360     2 H    1    3.964457   10.832767   11.994428      1.00       1.0079
     361     1 O    8    3.640064    3.186113   15.294240      6.00      15.9994
     362     2 H    1    3.338910    2.468362   15.904440      1.00       1.0079
     363     2 H    1    2.997261    3.187892   14.543098      1.00       1.0079
     364     1 O    8   11.984122   14.662698    5.372818      6.00      15.9994
     365     2 H    1   12.430686   14.106802    6.022516      1.00       1.0079
     366     2 H    1   11.032486   14.420871    5.308791      1.00       1.0079
     367     1 O    8    4.787487   12.472000   15.066228      6.00      15.9994
     368     2 H    1    4.555205   13.282962   14.559064      1.00       1.0079
     369     2 H    1    4.870351   11.765772   14.386268      1.00       1.0079
     370     1 O    8   13.109461   13.025263    7.583542      6.00      15.9994
     371     2 H    1   12.254771   12.591990    7.946305      1.00       1.0079
     372     2 H    1   13.414357   13.675517    8.285175      1.00       1.0079
     373     1 O    8    1.847683   14.447242   14.526800      6.00      15.9994
     374     2 H    1    1.326926   13.744704   15.005642      1.00       1.0079
     375     2 H    1    1.731275   14.172785   13.602119      1.00       1.0079



 PW_GRID: Information for grid number                                          1
 PW_GRID: Grid distributed over                                   128 processors
 PW_GRID: Real space group dimensions                                   128    1
 PW_GRID: the grid is blocked:                                                NO
 PW_GRID: Cutoff [a.u.]                                                    500.0
 PW_GRID: spherical cutoff:                                                   NO
 PW_GRID:   Bounds   1           -150     149                Points:         300
 PW_GRID:   Bounds   2           -150     149                Points:         300
 PW_GRID:   Bounds   3           -150     149                Points:         300
 PW_GRID: Volume element (a.u.^3)  0.9372E-03     Volume (a.u.^3)     25303.9229
 PW_GRID: Grid span                                                    FULLSPACE
 PW_GRID:   Distribution                         Average         Max         Min
 PW_GRID:   G-Vectors                           210937.5      211200      210900
 PW_GRID:   G-Rays                                 703.1         704         703
 PW_GRID:   Real Space Points                   210937.5      270000      180000

 PW_GRID: Information for grid number                                          2
 PW_GRID: Grid distributed over                                   128 processors
 PW_GRID: Real space group dimensions                                   128    1
 PW_GRID: the grid is blocked:                                                NO
 PW_GRID: Cutoff [a.u.]                                                    166.7
 PW_GRID: spherical cutoff:                                                   NO
 PW_GRID:   Bounds   1            -90      89                Points:         180
 PW_GRID:   Bounds   2            -90      89                Points:         180
 PW_GRID:   Bounds   3            -90      89                Points:         180
 PW_GRID: Volume element (a.u.^3)  0.4339E-02     Volume (a.u.^3)     25303.9229
 PW_GRID: Grid span                                                    FULLSPACE
 PW_GRID:   Distribution                         Average         Max         Min
 PW_GRID:   G-Vectors                            45562.5       45720       45360
 PW_GRID:   G-Rays                                 253.1         254         252
 PW_GRID:   Real Space Points                    45562.5       64800       32400

 PW_GRID: Information for grid number                                          3
 PW_GRID: Grid distributed over                                   128 processors
 PW_GRID: Real space group dimensions                                     8   16
 PW_GRID: the grid is blocked:                                                NO
 PW_GRID: Cutoff [a.u.]                                                     55.6
 PW_GRID: spherical cutoff:                                                   NO
 PW_GRID:   Bounds   1            -50      49                Points:         100
 PW_GRID:   Bounds   2            -50      49                Points:         100
 PW_GRID:   Bounds   3            -50      49                Points:         100
 PW_GRID: Volume element (a.u.^3)  0.2530E-01     Volume (a.u.^3)     25303.9229
 PW_GRID: Grid span                                                    FULLSPACE
 PW_GRID:   Distribution                         Average         Max         Min
 PW_GRID:   G-Vectors                             7812.5        7900        7700
 PW_GRID:   G-Rays                                  78.1          79          77
 PW_GRID:   Real Space Points                     7812.5        9100        7200

 PW_GRID: Information for grid number                                          4
 PW_GRID: Grid distributed over                                   128 processors
 PW_GRID: Real space group dimensions                                     8   16
 PW_GRID: the grid is blocked:                                                NO
 PW_GRID: Cutoff [a.u.]                                                     18.5
 PW_GRID: spherical cutoff:                                                   NO
 PW_GRID:   Bounds   1            -30      29                Points:          60
 PW_GRID:   Bounds   2            -30      29                Points:          60
 PW_GRID:   Bounds   3            -30      29                Points:          60
 PW_GRID: Volume element (a.u.^3)  0.1171         Volume (a.u.^3)     25303.9229
 PW_GRID: Grid span                                                    FULLSPACE
 PW_GRID:   Distribution                         Average         Max         Min
 PW_GRID:   G-Vectors                             1687.5        1740        1620
 PW_GRID:   G-Rays                                  28.1          29          27
 PW_GRID:   Real Space Points                     1687.5        1920        1260

 PW_GRID: Information for grid number                                          5
 PW_GRID: Grid distributed over                                   128 processors
 PW_GRID: Real space group dimensions                                     8   16
 PW_GRID: the grid is blocked:                                                NO
 PW_GRID: Cutoff [a.u.]                                                      6.2
 PW_GRID: spherical cutoff:                                                   NO
 PW_GRID:   Bounds   1            -18      17                Points:          36
 PW_GRID:   Bounds   2            -18      17                Points:          36
 PW_GRID:   Bounds   3            -18      17                Points:          36
 PW_GRID: Volume element (a.u.^3)  0.5424         Volume (a.u.^3)     25303.9229
 PW_GRID: Grid span                                                    FULLSPACE
 PW_GRID:   Distribution                         Average         Max         Min
 PW_GRID:   G-Vectors                              364.5         396         324
 PW_GRID:   G-Rays                                  10.1          11           9
 PW_GRID:   Real Space Points                      364.5         540         288

 RS_GRID: Information for grid number                                          1
 RS_GRID:   Bounds   1           -150     149                Points:         300
 RS_GRID:   Bounds   2           -150     149                Points:         300
 RS_GRID:   Bounds   3           -150     149                Points:         300
 RS_GRID: Real space distribution over                                  4 groups
 RS_GRID: Real space distribution along direction                              1
 RS_GRID: Border size                                                         20
 RS_GRID: Real space distribution over                                  4 groups
 RS_GRID: Real space distribution along direction                              2
 RS_GRID: Border size                                                         20
 RS_GRID: Real space distribution over                                  8 groups
 RS_GRID: Real space distribution along direction                              3
 RS_GRID: Border size                                                         20
 RS_GRID:   Distribution                         Average         Max         Min
 RS_GRID:   Planes                                 115.0         115         115
 RS_GRID:   Distribution                         Average         Max         Min
 RS_GRID:   Planes                                 115.0         115         115
 RS_GRID:   Distribution                         Average         Max         Min
 RS_GRID:   Planes                                  77.5          78          77

 RS_GRID: Information for grid number                                          2
 RS_GRID:   Bounds   1            -90      89                Points:         180
 RS_GRID:   Bounds   2            -90      89                Points:         180
 RS_GRID:   Bounds   3            -90      89                Points:         180
 RS_GRID: Real space distribution over                                  4 groups
 RS_GRID: Real space distribution along direction                              1
 RS_GRID: Border size                                                         18
 RS_GRID: Real space distribution over                                  4 groups
 RS_GRID: Real space distribution along direction                              2
 RS_GRID: Border size                                                         18
 RS_GRID: Real space distribution over                                  8 groups
 RS_GRID: Real space distribution along direction                              3
 RS_GRID: Border size                                                         18
 RS_GRID:   Distribution                         Average         Max         Min
 RS_GRID:   Planes                                  81.0          81          81
 RS_GRID:   Distribution                         Average         Max         Min
 RS_GRID:   Planes                                  81.0          81          81
 RS_GRID:   Distribution                         Average         Max         Min
 RS_GRID:   Planes                                  58.5          59          58

 RS_GRID: Information for grid number                                          3
 RS_GRID:   Bounds   1            -50      49                Points:         100
 RS_GRID:   Bounds   2            -50      49                Points:         100
 RS_GRID:   Bounds   3            -50      49                Points:         100
 RS_GRID: Real space fully replicated
 RS_GRID: Group size                                                           1

 RS_GRID: Information for grid number                                          4
 RS_GRID:   Bounds   1            -30      29                Points:          60
 RS_GRID:   Bounds   2            -30      29                Points:          60
 RS_GRID:   Bounds   3            -30      29                Points:          60
 RS_GRID: Real space fully replicated
 RS_GRID: Group size                                                           1

 RS_GRID: Information for grid number                                          5
 RS_GRID:   Bounds   1            -18      17                Points:          36
 RS_GRID:   Bounds   2            -18      17                Points:          36
[...]
     Hotelling iter   4 1.00000000   0.704E-02       0.011      200.826
     Hotelling iter   5 1.00000000   0.825E-04       0.012      184.281
     Hotelling iter   6 1.00000000   0.160E-07       0.013      178.667
     Hotelling iter   7 1.00000000   0.184E-14       0.012      193.807
 Maximum norm of dE/dT:   1.52906626415864324E-003
 Grad orthogonality error:   4.65967552267229553E-005
 Step orthogonality error:   5.94703931518539457E-005
 ALMO SCF LS    12   -362.986148524147   0.000E+00   0.153E-02   0.141E+00    -0.23393     1.151
 VAR1: |B*X|:   0.15378345671162635     
 VAR1: |Q.X|:   0.15378345671162635     
 VAR1: |T0+Q.X|:   0.95429579866521930     

     Hotelling iter   1 1.00000000   0.956E+00       0.012      196.283
     Hotelling iter   2 1.00000000   0.334E+00       0.012      197.314
     Hotelling iter   3 1.00000000   0.774E-01       0.015      151.411
     Hotelling iter   4 1.00000000   0.704E-02       0.012      182.520
     Hotelling iter   5 1.00000000   0.825E-04       0.012      195.523
     Hotelling iter   6 1.00000000   0.160E-07       0.012      195.068
     Hotelling iter   7 1.00000000   0.184E-14       0.012      191.933
 Maximum norm of dE/dT:   9.03974395975695689E-004
 Grad orthogonality error:   3.22752837216061441E-005
 ....updating step direction....
 ....applying preconditioner....
 ....special case 1....
 Dir orthogonality error:   8.68405924950762037E-006
 ....final beta....  0.14849773586132106     
 Step orthogonality error:   1.71794619590685014E-005
 ALMO SCF CG    13   -362.986156071073  -0.905E-04   0.907E-03   0.114E-04     0.85063     1.450
 VAR1: |B*X|:   0.15405256232691703     
 VAR1: |Q.X|:   0.15405256232691703     
 VAR1: |T0+Q.X|:   0.95429208541834021     

     Hotelling iter   1 1.00000000   0.956E+00       0.012      197.181
     Hotelling iter   2 1.00000000   0.334E+00       0.011      198.300
     Hotelling iter   3 1.00000000   0.774E-01       0.012      191.246
     Hotelling iter   4 1.00000000   0.704E-02       0.012      192.539
     Hotelling iter   5 1.00000000   0.825E-04       0.013      181.750
     Hotelling iter   6 1.00000000   0.160E-07       0.012      195.845
     Hotelling iter   7 1.00000000   0.186E-14       0.011      198.721
 Maximum norm of dE/dT:   5.02175320785650425E-004
 Grad orthogonality error:   1.77540362369308480E-005
 ....updating step direction....
 ....applying preconditioner....
 ....special case 1....
 Dir orthogonality error:   4.79344206584378388E-006
 ....final beta....  0.22643242154822102     
 Step orthogonality error:   6.93236329346348335E-006
 ALMO SCF CG    14   -362.986170088536  -0.140E-04   0.504E-03   0.263E-02     0.89316     1.444
 VAR1: |B*X|:   0.15398405403005783     
 VAR1: |Q.X|:   0.15398405403005783     
 VAR1: |T0+Q.X|:   0.95429050876338084     

     Hotelling iter   1 1.00000000   0.956E+00       0.012      192.928
     Hotelling iter   2 1.00000000   0.334E+00       0.011      197.683
     Hotelling iter   3 1.00000000   0.774E-01       0.012      196.663
     Hotelling iter   4 1.00000000   0.704E-02       0.012      193.123
     Hotelling iter   5 1.00000000   0.825E-04       0.012      187.903
     Hotelling iter   6 1.00000000   0.160E-07       0.012      192.961
     Hotelling iter   7 1.00000000   0.187E-14       0.012      190.670
 Maximum norm of dE/dT:   1.68167941761285537E-004
 Grad orthogonality error:   4.93953457989732305E-006
 Step orthogonality error:   7.05947947745091451E-006
 ALMO SCF LS    15   -362.986173522570   0.000E+00   0.168E-03  -0.297E-01     0.05491     1.152
 VAR1: |B*X|:   0.15397984192290837     
 VAR1: |Q.X|:   0.15397984192290837     
 VAR1: |T0+Q.X|:   0.95429041182563845     

     Hotelling iter   1 1.00000000   0.956E+00       0.015      147.589
     Hotelling iter   2 1.00000000   0.334E+00       0.012      193.211
     Hotelling iter   3 1.00000000   0.774E-01       0.011      200.052
     Hotelling iter   4 1.00000000   0.704E-02       0.012      194.798
     Hotelling iter   5 1.00000000   0.825E-04       0.012      193.800
     Hotelling iter   6 1.00000000   0.160E-07       0.015      152.087
     Hotelling iter   7 1.00000000   0.187E-14       0.012      196.607
 Maximum norm of dE/dT:   2.09383040740176367E-004
 Grad orthogonality error:   6.21158136781651670E-006
 ....updating step direction....
 ....applying preconditioner....
 ....special case 1....
 Dir orthogonality error:   1.49343768230841747E-006
 ....final beta....  0.19838224301733684     
 Step orthogonality error:   2.76548491463935248E-006
 ALMO SCF CG    16   -362.986173534129  -0.345E-05   0.210E-03  -0.153E-06     0.99548     1.458
 VAR1: |B*X|:   0.15401547011333547     
 VAR1: |Q.X|:   0.15401547011333547     
 VAR1: |T0+Q.X|:   0.95429085661734669     

     Hotelling iter   1 1.00000000   0.956E+00       0.012      189.149
     Hotelling iter   2 1.00000000   0.334E+00       0.011      197.801
     Hotelling iter   3 1.00000000   0.774E-01       0.012      192.203
     Hotelling iter   4 1.00000000   0.704E-02       0.012      187.957
     Hotelling iter   5 1.00000000   0.825E-04       0.012      191.054
     Hotelling iter   6 1.00000000   0.160E-07       0.012      185.087
     Hotelling iter   7 1.00000000   0.182E-14       0.011      198.008
 Maximum norm of dE/dT:   1.38238124648532951E-004
 Grad orthogonality error:   2.07390625280190851E-006
 Step orthogonality error:   2.76545891776435319E-006
 ALMO SCF LS    17   -362.986174173754   0.000E+00   0.139E-03   0.699E-01    -0.12723     1.144
 VAR1: |B*X|:   0.15401091661382235     
 VAR1: |Q.X|:   0.15401091661382235     
 VAR1: |T0+Q.X|:   0.95429079977026010     

     Hotelling iter   1 1.00000000   0.956E+00       0.012      193.845
     Hotelling iter   2 1.00000000   0.334E+00       0.011      197.715
     Hotelling iter   3 1.00000000   0.774E-01       0.012      192.627
     Hotelling iter   4 1.00000000   0.704E-02       0.012      192.304
     Hotelling iter   5 1.00000000   0.825E-04       0.011      197.786
     Hotelling iter   6 1.00000000   0.160E-07       0.011      199.441
     Hotelling iter   7 1.00000000   0.177E-14       0.012      192.901
 Maximum norm of dE/dT:   9.59340386581798948E-005
 Grad orthogonality error:   1.54906114934397512E-006
 ....updating step direction....
 ....applying preconditioner....
 ....special case 1....
 Dir orthogonality error:   6.70214570292959234E-007
 ....final beta....  0.16467612052916142     
 Step orthogonality error:   1.09845329414775635E-006
 ALMO SCF CG    18   -362.986174187790  -0.654E-06   0.962E-04   0.160E-07     0.91166     1.455
 VAR1: |B*X|:   0.15398530950602690     
 VAR1: |Q.X|:   0.15398530950602690     
 VAR1: |T0+Q.X|:   0.95429141818941321     

     Hotelling iter   1 1.00000000   0.956E+00       0.011      198.443
     Hotelling iter   2 1.00000000   0.334E+00       0.011      197.937
     Hotelling iter   3 1.00000000   0.774E-01       0.011      198.121
     Hotelling iter   4 1.00000000   0.704E-02       0.012      194.038
     Hotelling iter   5 1.00000000   0.825E-04       0.012      196.903
     Hotelling iter   6 1.00000000   0.160E-07       0.011      198.906
     Hotelling iter   7 1.00000000   0.178E-14       0.012      191.999
 Maximum norm of dE/dT:   5.03260016547776796E-005
 Grad orthogonality error:   8.96290975337140690E-007
 ....updating step direction....
 ....applying preconditioner....
 ....special case 1....
 Dir orthogonality error:   3.66124216638236830E-007
 ....final beta....  0.21288237679943092     
 Step orthogonality error:   6.00906918457418268E-007
 ALMO SCF CG    19   -362.986174300560  -0.113E-06   0.504E-04  -0.192E-02     0.95725     1.445
 VAR1: |B*X|:   0.15398558349791064     
 VAR1: |Q.X|:   0.15398558349791064     
 VAR1: |T0+Q.X|:   0.95429181056576273     

     Hotelling iter   1 1.00000000   0.956E+00       0.012      193.817
     Hotelling iter   2 1.00000000   0.334E+00       0.013      173.448
     Hotelling iter   3 1.00000000   0.774E-01       0.012      192.064
     Hotelling iter   4 1.00000000   0.704E-02       0.012      194.322
     Hotelling iter   5 1.00000000   0.825E-04       0.011      198.143
     Hotelling iter   6 1.00000000   0.160E-07       0.012      196.133
     Hotelling iter   7 1.00000000   0.180E-14       0.012      193.714
 Maximum norm of dE/dT:   3.03278763829421648E-005
 Grad orthogonality error:   4.42314442693573303E-007
 ....updating step direction....
 ....applying preconditioner....
 ....special case 1....
 Dir orthogonality error:   1.44981435923474663E-007
 ....final beta....  0.25584655593521005     
 Step orthogonality error:   2.88385562183582372E-007
 ALMO SCF CG    20   -362.986174326213  -0.257E-07   0.303E-04   0.916E-03     1.00511     1.448
 VAR1: |B*X|:   0.15398837976164700     
 VAR1: |Q.X|:   0.15398837976164700     
 VAR1: |T0+Q.X|:   0.95429203771855620     

     Hotelling iter   1 1.00000000   0.956E+00       0.012      188.348
     Hotelling iter   2 1.00000000   0.334E+00       0.011      198.732
     Hotelling iter   3 1.00000000   0.774E-01       0.012      194.351
     Hotelling iter   4 1.00000000   0.704E-02       0.012      196.455
     Hotelling iter   5 1.00000000   0.825E-04       0.012      187.074
     Hotelling iter   6 1.00000000   0.160E-07       0.012      190.951
     Hotelling iter   7 1.00000000   0.177E-14       0.013      181.034
 Maximum norm of dE/dT:   1.77222512624665933E-005
 Grad orthogonality error:   2.09653451717133906E-007
 Step orthogonality error:   2.88649922781703588E-007
 ALMO SCF LS    21   -362.986174331850   0.000E+00   0.177E-04   0.701E-01    -0.13541     1.153
 VAR1: |B*X|:   0.15398800305659982     
 VAR1: |Q.X|:   0.15398800305659982     
 VAR1: |T0+Q.X|:   0.95429200711714957     

     Hotelling iter   1 1.00000000   0.956E+00       0.012      193.710
     Hotelling iter   2 1.00000000   0.334E+00       0.012      190.755
     Hotelling iter   3 1.00000000   0.774E-01       0.012      193.519
     Hotelling iter   4 1.00000000   0.704E-02       0.012      193.613
     Hotelling iter   5 1.00000000   0.825E-04       0.012      195.701
     Hotelling iter   6 1.00000000   0.160E-07       0.012      193.740
     Hotelling iter   7 1.00000000   0.178E-14       0.012      192.140
 Maximum norm of dE/dT:   1.12490664901246720E-005
 Grad orthogonality error:   1.40727564348804721E-007
 ....updating step direction....
 ....applying preconditioner....
 ....special case 1....
 Dir orthogonality error:   6.57040355346925640E-008
 ....final beta....  0.19452560516297143     
 Step orthogonality error:   1.19273704111798024E-007
 ALMO SCF CG    22   -362.986174331990  -0.578E-08   0.112E-04   0.215E-07     0.91319     1.446
 VAR1: |B*X|:   0.15398933255306227     
 VAR1: |Q.X|:   0.15398933255306227     
 VAR1: |T0+Q.X|:   0.95429206172617798     

     Hotelling iter   1 1.00000000   0.956E+00       0.012      189.170
     Hotelling iter   2 1.00000000   0.334E+00       0.012      188.920
     Hotelling iter   3 1.00000000   0.774E-01       0.012      193.496
     Hotelling iter   4 1.00000000   0.704E-02       0.012      195.462
     Hotelling iter   5 1.00000000   0.825E-04       0.011      202.653
     Hotelling iter   6 1.00000000   0.160E-07       0.012      196.128
     Hotelling iter   7 1.00000000   0.183E-14       0.012      189.700
 Maximum norm of dE/dT:   4.15680075757578573E-006
 Grad orthogonality error:   7.15743399134268986E-008
 ALMO SCF CG    23   -362.986174333179  -0.578E-08   0.415E-05   0.215E-07     0.91319     0.979
 _ENERGY-0:   -2151.4391736226589     
 _ENERGY-D:   -1.4810453132504175     
 _ENERGY-F:   -2152.9202189359094     

 DECOMPOSITION OF THE DELOCALIZATION ENERGY

 ENERGY| Total FORCE_EVAL ( QS ) energy (a.u.):            -2151.439173667626619


 -------------------------------------------------------------------------------
 ----                             MULTIGRID INFO                            ----
 -------------------------------------------------------------------------------
 count for grid        1:        1664561          cutoff [a.u.]          500.00
 count for grid        2:        1514618          cutoff [a.u.]          166.67
 count for grid        3:        1403613          cutoff [a.u.]           55.56
 count for grid        4:        1380758          cutoff [a.u.]           18.52
 count for grid        5:        2634584          cutoff [a.u.]            6.17
 total gridlevel count  :        8598134

 -------------------------------------------------------------------------------
 -                                                                             -
 -                         MESSAGE PASSING PERFORMANCE                         -
 -                                                                             -
 -------------------------------------------------------------------------------

 ROUTINE             CALLS  TOT TIME [s]  AVE VOLUME [Bytes]  PERFORMANCE [MB/s]
 MP_Group                5         0.000
 MP_Bcast               50         0.012            4195123.            17306.64
 MP_Allreduce          217         1.072               7637.                1.55
 MP_Gather               4         0.006               3584.                2.57
 MP_Sync                 5         0.000
 MP_Alltoall           750        26.406            4244205.              120.55
 MP_ISendRecv        20574         0.063              30827.            10015.90
 MP_Wait             25152         6.701
 MP_ISend             4142         0.255             172519.             2803.31
 MP_IRecv             4142         0.188             172389.             3791.20
 -------------------------------------------------------------------------------


 -------------------------------------------------------------------------------
 -                                                                             -
 -                           R E F E R E N C E S                               -
 -                                                                             -
 -------------------------------------------------------------------------------
 
 CP2K version 2.2.268 (Development Version), the CP2K developers group (2011).
 CP2K is freely available from http://cp2k.berlios.de/ .

 VandeVondele, J; Hutter, J. 
 JOURNAL OF CHEMICAL PHYSICS, 127 (11), 114105 (2007). 
 Gaussian basis sets for accurate calculations on molecular systems in
 gas and condensed phases.
 http://dx.doi.org/10.1063/1.2770708


 Krack, M. 
 THEORETICAL CHEMISTRY ACCOUNTS, 114 (1-3), 145-152 (2005). 
 Pseudopotentials for H to Kr optimized for gradient-corrected
 exchange-correlation functionals.
 http://dx.doi.org/10.1007/s00214-005-0655-y


 VandeVondele, J; Krack, M; Mohamed, F; Parrinello, M; Chassaing, T;
 Hutter, J. COMPUTER PHYSICS COMMUNICATIONS, 167 (2), 103-128 (2005). 
 QUICKSTEP: Fast and accurate density functional calculations using a
 mixed Gaussian and plane waves approach.
 http://dx.doi.org/10.1016/j.cpc.2004.12.014


 Frigo, M; Johnson, SG. 
 PROCEEDINGS OF THE IEEE, 93 (2), 216-231 (2005). 
 The design and implementation of FFTW3.
 http://dx.doi.org/10.1109/JPROC.2004.840301


 Hartwigsen, C; Goedecker, S; Hutter, J. 
 PHYSICAL REVIEW B, 58 (7), 3641-3662 (1998). 
 Relativistic separable dual-space Gaussian pseudopotentials from H to Rn.
 http://dx.doi.org/10.1103/PhysRevB.58.3641


 Lippert, G; Hutter, J; Parrinello, M. 
 MOLECULAR PHYSICS, 92 (3), 477-487 (1997). 
 A hybrid Gaussian and plane wave density functional scheme.
 http://dx.doi.org/10.1080/002689797170220


 Goedecker, S; Teter, M; Hutter, J. 
 PHYSICAL REVIEW B, 54 (3), 1703-1710 (1996). 
 Separable dual-space Gaussian pseudopotentials.
 http://dx.doi.org/10.1103/PhysRevB.54.1703


 BECKE, AD. PHYSICAL REVIEW A, 38 (6), 3098-3100 (1988). 
 DENSITY-FUNCTIONAL EXCHANGE-ENERGY APPROXIMATION WITH CORRECT
 ASYMPTOTIC-BEHAVIOR.
 http://dx.doi.org/10.1103/PhysRevA.38.3098


 LEE, CT; YANG, WT; PARR, RG. 
 PHYSICAL REVIEW B, 37 (2), 785-789 (1988). 
 DEVELOPMENT OF THE COLLE-SALVETTI CORRELATION-ENERGY FORMULA INTO A
 FUNCTIONAL OF THE ELECTRON-DENSITY.
 http://dx.doi.org/10.1103/PhysRevB.37.785


 -------------------------------------------------------------------------------
 -                                                                             -
 -                                T I M I N G                                  -
 -                                                                             -
 -------------------------------------------------------------------------------
 SUBROUTINE                       CALLS  ASD         SELF TIME        TOTAL TIME
                                              AVERAGE  MAXIMUM  AVERAGE  MAXIMUM
 CP2K                                 1  1.0    0.032    0.040  350.369  350.427
 qs_energies_scf                      1  2.0    0.000    0.001  349.772  349.841
 almo_entry_scf                       1  3.0    0.000    0.000  345.563  345.632
 almo_scf_main                        1  4.0    0.000    0.000  287.791  287.864
 almo_scf_dm_to_ks                   26  6.0    0.000    0.000  281.944  282.251
 almo_scf_main_block_diagonal         1  5.0    0.000    0.001  239.639  239.703
 qs_ks_update_qs_env                 27  7.0    0.001    0.001  170.912  171.212
 qs_ks_build_kohn_sham_matrix        27  8.0    0.033    0.050  170.872  171.172
 sum_up_and_integrate                27  9.0    0.167    0.210  137.836  138.130
 integrate_v_rspace                  27 10.0  120.533  122.786  137.668  137.978
 qs_rho_update_rho                   27  7.0    0.000    0.001  120.386  120.412
 calculate_rho_elec                  27  8.0   98.997  102.270  120.386  120.411
 almo_scf_main_quenched_almos         2  5.0    0.035    0.051   94.349   94.380
 almo_post_scf                        1  4.0    0.001    0.001   46.237   46.261
 cp_dbcsr_multiply_d               1905  7.4    0.009    0.010   45.917   46.183
 fft_wrap_pw1pw2                    514 11.0    0.015    0.020   37.887   38.401
 fft_wrap_pw1pw2_500                298 11.9    2.240    2.724   35.951   36.443
 fft3d_ps                           514 13.0   10.149   12.374   31.799   32.700
 qs_vxc_create                       27  9.0    0.002    0.002   28.560   28.705
 xc_vxc_pw_create                    27 10.0    0.466    0.546   28.558   28.703
 cp_dbcsr_mult_NS_NR                280  7.6   25.327   26.043   25.335   26.050
 density_rs2pw                       27  9.0    0.691    0.980   16.254   18.632
 rs_pw_transfer                     271 10.9    0.008    0.030   13.364   15.910
 xc_rho_set_and_dset_create          27 11.0    1.790    2.278   14.639   15.433
 almo_scf_t_to_p                     50  6.4    0.001    0.001   13.569   13.856
 distribute_matrix                   54 10.0    9.782   12.669    9.994   12.740
 x_to_yz                            189 14.1   11.321   11.674   11.321   11.674
 almo_scf_init                        1  4.0    0.000    0.000   11.534   11.548
 yz_to_x                            163 13.8    9.904   11.262    9.904   11.262
 almo_scf_init_qs                     1  5.0    0.180    0.181   11.235   11.248
 potential_pw2rs                     27 11.0    0.018    0.019   10.169   10.204
 rs_pw_transfer_RS2PW_500            28 10.8    4.487    7.109    4.487    7.109
 -------------------------------------------------------------------------------

  **** **** ******  **  PROGRAM ENDED AT                 2012-06-12 21:52:44.264
 ***** ** ***  *** **   PROGRAM RAN ON                                  nid00029
 **    ****   ******    PROGRAM RAN BY                                  root ;-)
 ***** **    ** ** **   PROGRAM PROCESS ID                                 19192
  **** **  *******  **  PROGRAM STOPPED IN /scratch/weisshorn/rustamr/e298-1.304
                                           388
Application 983405 resources: utime ~43383s, stime ~1536s
