
  **** **** ******  **  PROGRAM STARTED AT               2012-06-12 22:10:25.875
 ***** ** ***  *** **   PROGRAM STARTED ON                              nid00029
 **    ****   ******    PROGRAM STARTED BY                              root ;-)
 ***** **    ** ** **   PROGRAM PROCESS ID                                 19472
  **** **  *******  **  PROGRAM STARTED IN /scratch/weisshorn/rustamr/e298-1.304
                                           388

 CP2K| version string:                CP2K version 2.2.268 (Development Version)
 CP2K| is freely available from                          http://cp2k.berlios.de/
 CP2K| Program compiled at                         Sun May 27 15:14:38 CEST 2012
 CP2K| Program compiled on                                                 rosa5
 CP2K| Program compiled for                                    rosa-new-gfortran
 CP2K| Last CVS entry                xas_tp_scf.F/1.101/Wed Jun 29 13:43:33 2011
 CP2K| Input file name                                           bulk.090020.inp

 GLOBAL| Force Environment number                                              1
 GLOBAL| Basis set file name            /users/rustamr/dev/cp2k/tests/QS/BASIS_M
 GLOBAL| Geminal file name                                         BASIS_GEMINAL
 GLOBAL| Potential file name            /users/rustamr/dev/cp2k/tests/QS/GTH_POT
 GLOBAL| MM Potential file name                                     MM_POTENTIAL
 GLOBAL| Coordinate file name                                      __STD_INPUT__
 GLOBAL| Method name                                                        CP2K
 GLOBAL| Project name                                                       bulk
 GLOBAL| Preferred FFT library                                             FFTW3
 GLOBAL| Run type                                                         ENERGY
 GLOBAL| All-to-all communication in single precision                          F
 GLOBAL| FFTs using library dependent lengths                                  F
 GLOBAL| Global print level                                               MEDIUM
 GLOBAL| Total number of message passing processes                           128
 GLOBAL| Number of threads for this process                                    1
 GLOBAL| This output is from process                                           0

 MEMORY| system memory details [Kb]
 MEMORY|                        rank 0           min           max       average
 MEMORY| MemTotal             33082792      33082792      33082792      33082792
 MEMORY| MemFree              30721512      30718172      30725004      30721898
 MEMORY| Buffers                     0             0             0             0
 MEMORY| Cached                 110012        109060        110144        109654
 MEMORY| Slab                   192536        192024        193084        192490
 MEMORY| SReclaimable             4456          4456          4632          4518
 MEMORY| MemLikelyFree        30835980      30832640      30838696      30836070

 DBCSR| Multiplication driver                                                SMM
 DBCSR| Multiplication stack size                                           1000
 DBCSR| Use subcommunicators                                                   F
 DBCSR| Use MPI combined types                                                 F
 DBCSR| Use MPI memory allocation                                              T


 *** Fundamental physical constants (SI units) ***

 *** Literature: B. J. Mohr and B. N. Taylor,
 ***             CODATA recommended values of the fundamental physical
 ***             constants: 2006, Web Version 5.1
 ***             http://physics.nist.gov/constants

 Speed of light in vacuum [m/s]                             2.99792458000000E+08
 Magnetic constant or permeability of vacuum [N/A**2]       1.25663706143592E-06
 Electric constant or permittivity of vacuum [F/m]          8.85418781762039E-12
 Planck constant (h) [J*s]                                  6.62606896000000E-34
 Planck constant (h-bar) [J*s]                              1.05457162825177E-34
 Elementary charge [C]                                      1.60217648700000E-19
 Electron mass [kg]                                         9.10938215000000E-31
 Electron g factor [ ]                                     -2.00231930436220E+00
 Proton mass [kg]                                           1.67262163700000E-27
 Fine-structure constant                                    7.29735253760000E-03
 Rydberg constant [1/m]                                     1.09737315685270E+07
 Avogrado constant [1/mol]                                  6.02214179000000E+23
 Boltzmann constant [J/K]                                   1.38065040000000E-23
 Atomic mass unit [kg]                                      1.66053878200000E-27
 Bohr radius [m]                                            5.29177208590000E-11

 *** Conversion factors ***

 [u] -> [a.u.]                                              1.82288848426455E+03
 [Angstrom] -> [Bohr] = [a.u.]                              1.88972613288564E+00
 [a.u.] = [Bohr] -> [Angstrom]                              5.29177208590000E-01
 [a.u.] -> [s]                                              2.41888432650478E-17
 [a.u.] -> [fs]                                             2.41888432650478E-02
 [a.u.] -> [J]                                              4.35974393937059E-18
 [a.u.] -> [K]                                              3.15774647902944E+05
 [a.u.] -> [kJ/mol]                                         2.62549961709828E+03
 [a.u.] -> [kcal/mol]                                       6.27509468713739E+02
 [a.u.] -> [Pa]                                             2.94210107994716E+13
 [a.u.] -> [bar]                                            2.94210107994716E+08
 [a.u.] -> [atm]                                            2.90362800883016E+08
 [a.u.] -> [eV]                                             2.72113838565563E+01
 [a.u.] -> [Hz]                                             6.57968392072181E+15
 [a.u.] -> [1/cm] (wave numbers)                            2.19474631370540E+05
 [a.u./Bohr**2] -> [1/cm]                                   5.14048714338585E+03
 

 CELL| Volume [angstrom^3]:                                             3749.654
 CELL| Vector a [angstrom]:      15.536     0.000     0.000    |a| =      15.536
 CELL| Vector b [angstrom]:       0.000    15.536     0.000    |b| =      15.536
 CELL| Vector c [angstrom]:       0.000     0.000    15.536    |c| =      15.536
 CELL| Angle (b,c), alpha [degree]:                                       90.000
 CELL| Angle (a,c), beta  [degree]:                                       90.000
 CELL| Angle (a,b), gamma [degree]:                                       90.000

 CELL_REF| Volume [angstrom^3]:                                         3749.654
 CELL_REF| Vector a [angstrom    15.536     0.000     0.000    |a| =      15.536
 CELL_REF| Vector b [angstrom     0.000    15.536     0.000    |b| =      15.536
 CELL_REF| Vector c [angstrom     0.000     0.000    15.536    |c| =      15.536
 CELL_REF| Angle (b,c), alpha [degree]:                                   90.000
 CELL_REF| Angle (a,c), beta  [degree]:                                   90.000
 CELL_REF| Angle (a,b), gamma [degree]:                                   90.000

 CELL_TOP| Volume [angstrom^3]:                                         3749.654
 CELL_TOP| Vector a [angstrom    15.536     0.000     0.000    |a| =      15.536
 CELL_TOP| Vector b [angstrom     0.000    15.536     0.000    |b| =      15.536
 CELL_TOP| Vector c [angstrom     0.000     0.000    15.536    |c| =      15.536
 CELL_TOP| Angle (b,c), alpha [degree]:                                   90.000
 CELL_TOP| Angle (a,c), beta  [degree]:                                   90.000
 CELL_TOP| Angle (a,b), gamma [degree]:                                   90.000

 GENERATE|  Preliminary Number of Bonds generated:                           250
 GENERATE|  Achieved consistency in connectivity generation.
 GENERATE|  Number of Bonds generated:                                       250
 REORDER |  
 REORDER |  Reordering Molecules. The Reordering of molecules will override all
 REORDER |  information regarding molecule names and residue names.
 REORDER |  New ones will be provided on the basis of the connectivity!
 REORDER |  Number of unique molecules found:      1.
 REORDER |  

 GENERATE|  Preliminary Number of Bonds generated:                           250
 GENERATE|  Achieved consistency in connectivity generation.
 GENERATE|  Number of Bonds generated:                                       250
 GENERATE|  Preliminary Number of Bends generated:                           125
 GENERATE|  Number of Bends generated:                                       125
 GENERATE|  Number of UB generated:                                          125
 GENERATE|  Preliminary Number of Torsions generated:                          0
 GENERATE|  Number of Torsions generated:                                      0
 GENERATE|  Number of Impropers generated:                                     0
 GENERATE|  Number of 1-4 interactions generated:                              0

 *******************************************************************************
 *******************************************************************************
 **                                                                           **
 **     #####                         ##              ##                      **
 **    ##   ##            ##          ##              ##                      **
 **   ##     ##                       ##            ######                    **
 **   ##     ##  ##   ##  ##   #####  ##  ##   ####   ##    #####    #####    **
 **   ##     ##  ##   ##  ##  ##      ## ##   ##      ##   ##   ##  ##   ##   **
 **   ##  ## ##  ##   ##  ##  ##      ####     ###    ##   ######   ######    **
 **    ##  ###   ##   ##  ##  ##      ## ##      ##   ##   ##       ##        **
 **     #######   #####   ##   #####  ##  ##  ####    ##    #####   ##        **
 **           ##                                                    ##        **
 **                                                                           **
 **                                                ... make the atoms dance   **
 **                                                                           **
 **            Copyright (C) by CP2K Developers Group (2000 - 2011)           **
 **                                                                           **
 *******************************************************************************

 DFT| Spin restricted Kohn-Sham (RKS) calculation                            RKS
 DFT| Multiplicity                                                             1
 DFT| Number of spin states                                                    1
 DFT| Charge                                                                   0
 DFT| Self-interaction correction (SIC)                                       NO
 DFT| Cutoffs: density                                              1.000000E-10
 DFT|          gradient                                             1.000000E-10
 DFT|          tau                                                  1.000000E-10
 DFT|          cutoff_smoothing_range                               0.000000E+00
 DFT| XC density smoothing                                                  NONE
 DFT| XC derivatives                                                          PW
 FUNCTIONAL| ROUTINE=NEW
 FUNCTIONAL| BECKE88:
 FUNCTIONAL| A. Becke, Phys. Rev. A 38, 3098 (1988) {LDA version}
 FUNCTIONAL| LYP:
 FUNCTIONAL| C. Lee, W. Yang, R.G. Parr, Phys. Rev. B, 37, 785 (1988) {LDA versi
 FUNCTIONAL| on}

 QS| Method:                                                                 GPW
 QS| Density plane wave grid type                        NON-SPHERICAL FULLSPACE
 QS| Number of grid levels:                                                    5
 QS| Density cutoff [a.u.]:                                                500.0
 QS| Multi grid cutoff [a.u.]: 1) grid level                               500.0
 QS|                           2) grid level                               166.7
 QS|                           3) grid level                                55.6
 QS|                           4) grid level                                18.5
 QS|                           5) grid level                                 6.2
 QS| Grid level progression factor:                                          3.0
 QS| Relative density cutoff [a.u.]:                                        15.0
 QS| Consistent realspace mapping and integration 
 QS| Interaction thresholds: eps_pgf_orb:                                1.0E-05
 QS|                         eps_filter_matrix:                          0.0E+00
 QS|                         eps_core_charge:                            1.0E-12
 QS|                         eps_rho_gspace:                             1.0E-10
 QS|                         eps_rho_rspace:                             1.0E-10
 QS|                         eps_gvg_rspace:                             1.0E-05
 QS|                         eps_ppl:                                    1.0E-02
 QS|                         eps_ppnl:                                   1.0E-07


 ATOMIC KIND INFORMATION

  1. Atomic kind: O                                     Number of atoms:     125

     Orbital basis set information for                          TZV2P-MOLOPT-GTH

       Number of orbital shell sets:                                           1
       Number of orbital shells:                                               8
       Number of primitive Cartesian functions:                                7
       Number of Cartesian basis functions:                                   24
       Number of spherical basis functions:                                   22

       Normalised Cartesian orbitals:

                        Set   Shell   Orbital            Exponent    Coefficient

                          1       1    2s               12.015955      -0.284499
                                                         5.108150      -0.322498
                                                         2.048398       0.148191
                                                         0.832382       0.295475
                                                         0.352316       0.150829
                                                         0.142977       0.015788
                                                         0.046761      -0.000019

                          1       2    3s               12.015955       0.725622
                                                         5.108150       0.644384
                                                         2.048398      -0.157350
                                                         0.832382      -0.853528
                                                         0.352316       0.146068
                                                         0.142977       0.153978
                                                         0.046761       0.000658

                          1       3    4s               12.015955       1.228006
                                                         5.108150       1.271453
                                                         2.048398      -0.537390
                                                         0.832382      -1.759282
                                                         0.352316       1.533697
                                                         0.142977      -0.562509
                                                         0.046761       0.081954

                          1       4    3px              12.015955       1.192141
                                                         5.108150       1.354170
                                                         2.048398       0.897267
                                                         0.832382       0.408839
                                                         0.352316       0.116648
                                                         0.142977       0.022184
                                                         0.046761       0.000308
                          1       4    3py              12.015955       1.192141
                                                         5.108150       1.354170
                                                         2.048398       0.897267
                                                         0.832382       0.408839
                                                         0.352316       0.116648
                                                         0.142977       0.022184
                                                         0.046761       0.000308
                          1       4    3pz              12.015955       1.192141
                                                         5.108150       1.354170
                                                         2.048398       0.897267
                                                         0.832382       0.408839
                                                         0.352316       0.116648
                                                         0.142977       0.022184
                                                         0.046761       0.000308

                          1       5    4px              12.015955      -1.062381
                                                         5.108150      -1.285791
                                                         2.048398      -0.727000
                                                         0.832382      -0.522764
                                                         0.352316       0.182681
                                                         0.142977       0.087560
                                                         0.046761       0.000981
                          1       5    4py              12.015955      -1.062381
                                                         5.108150      -1.285791
                                                         2.048398      -0.727000
                                                         0.832382      -0.522764
                                                         0.352316       0.182681
                                                         0.142977       0.087560
                                                         0.046761       0.000981
                          1       5    4pz              12.015955      -1.062381
                                                         5.108150      -1.285791
                                                         2.048398      -0.727000
                                                         0.832382      -0.522764
                                                         0.352316       0.182681
                                                         0.142977       0.087560
                                                         0.046761       0.000981

                          1       6    5px              12.015955      -0.063722
                                                         5.108150       0.363638
                                                         2.048398       0.015152
                                                         0.832382      -0.083580
                                                         0.352316       0.692078
                                                         0.142977      -0.184312
                                                         0.046761       0.007664
                          1       6    5py              12.015955      -0.063722
                                                         5.108150       0.363638
                                                         2.048398       0.015152
                                                         0.832382      -0.083580
                                                         0.352316       0.692078
                                                         0.142977      -0.184312
                                                         0.046761       0.007664
                          1       6    5pz              12.015955      -0.063722
                                                         5.108150       0.363638
                                                         2.048398       0.015152
                                                         0.832382      -0.083580
                                                         0.352316       0.692078
                                                         0.142977      -0.184312
                                                         0.046761       0.007664

                          1       7    4dx2             12.015955       1.125955
                                                         5.108150       1.160468
                                                         2.048398       0.999335
                                                         0.832382       0.756334
                                                         0.352316       0.048604
                                                         0.142977       0.010378
                                                         0.046761      -0.000027
                          1       7    4dxy             12.015955       1.950212
                                                         5.108150       2.009990
                                                         2.048398       1.730899
                                                         0.832382       1.310009
                                                         0.352316       0.084185
                                                         0.142977       0.017974
                                                         0.046761      -0.000046
                          1       7    4dxz             12.015955       1.950212
                                                         5.108150       2.009990
                                                         2.048398       1.730899
                                                         0.832382       1.310009
                                                         0.352316       0.084185
                                                         0.142977       0.017974
                                                         0.046761      -0.000046
                          1       7    4dy2             12.015955       1.125955
                                                         5.108150       1.160468
                                                         2.048398       0.999335
                                                         0.832382       0.756334
                                                         0.352316       0.048604
                                                         0.142977       0.010378
                                                         0.046761      -0.000027
                          1       7    4dyz             12.015955       1.950212
                                                         5.108150       2.009990
                                                         2.048398       1.730899
                                                         0.832382       1.310009
                                                         0.352316       0.084185
                                                         0.142977       0.017974
                                                         0.046761      -0.000046
                          1       7    4dz2             12.015955       1.125955
                                                         5.108150       1.160468
                                                         2.048398       0.999335
                                                         0.832382       0.756334
                                                         0.352316       0.048604
                                                         0.142977       0.010378
                                                         0.046761      -0.000027

                          1       8    5dx2             12.015955      -2.135425
                                                         5.108150       0.581743
                                                         2.048398      -1.302492
                                                         0.832382       0.098118
                                                         0.352316       0.292085
                                                         0.142977      -0.022029
                                                         0.046761      -0.003795
                          1       8    5dxy             12.015955      -3.698665
                                                         5.108150       1.007608
                                                         2.048398      -2.255983
                                                         0.832382       0.169945
                                                         0.352316       0.505906
                                                         0.142977      -0.038155
                                                         0.046761      -0.006574
                          1       8    5dxz             12.015955      -3.698665
                                                         5.108150       1.007608
                                                         2.048398      -2.255983
                                                         0.832382       0.169945
                                                         0.352316       0.505906
                                                         0.142977      -0.038155
                                                         0.046761      -0.006574
                          1       8    5dy2             12.015955      -2.135425
                                                         5.108150       0.581743
                                                         2.048398      -1.302492
                                                         0.832382       0.098118
                                                         0.352316       0.292085
                                                         0.142977      -0.022029
                                                         0.046761      -0.003795
                          1       8    5dyz             12.015955      -3.698665
                                                         5.108150       1.007608
                                                         2.048398      -2.255983
                                                         0.832382       0.169945
                                                         0.352316       0.505906
                                                         0.142977      -0.038155
                                                         0.046761      -0.006574
                          1       8    5dz2             12.015955      -2.135425
                                                         5.108150       0.581743
                                                         2.048398      -1.302492
                                                         0.832382       0.098118
                                                         0.352316       0.292085
                                                         0.142977      -0.022029
                                                         0.046761      -0.003795

     Potential information for                                       GTH-BLYP-q6

       Description:                       Goedecker-Teter-Hutter pseudopotential
                                           Goedecker et al., PRB 54, 1703 (1996)
                                          Hartwigsen et al., PRB 58, 3641 (1998)
                                                      Krack, TCA 114, 145 (2005)

       Gaussian exponent of the core charge distribution:               8.438331
       Electronic configuration (s p d ...):                               2   4

       Parameters of the local part of the GTH pseudopotential:

                          rloc        C1          C2          C3          C4
                        0.243420  -16.991892    2.566142

       Parameters of the non-local part of the GTH pseudopotential:

                   l      r(l)      h(i,j,l)

                   0    0.220831   18.388851
                   1    0.217201

  2. Atomic kind: H                                     Number of atoms:     250

     Orbital basis set information for                          TZV2P-MOLOPT-GTH

       Number of orbital shell sets:                                           1
       Number of orbital shells:                                               5
       Number of primitive Cartesian functions:                                7
       Number of Cartesian basis functions:                                    9
       Number of spherical basis functions:                                    9

       Normalised Cartesian orbitals:

                        Set   Shell   Orbital            Exponent    Coefficient

                          1       1    2s               11.478000       0.129129
                                                         3.700759       0.177012
                                                         1.446884       0.141285
                                                         0.716815       0.245670
                                                         0.247919       0.094768
                                                         0.066918       0.004062
                                                         0.021708      -0.000053

                          1       2    3s               11.478000      -0.079256
                                                         3.700759      -0.152992
                                                         1.446884       0.015066
                                                         0.716815      -0.331234
                                                         0.247919       0.210690
                                                         0.066918       0.058630
                                                         0.021708      -0.003429

                          1       3    4s               11.478000      -0.246880
                                                         3.700759       0.023016
                                                         1.446884      -1.109374
                                                         0.716815       1.524652
                                                         0.247919      -0.227968
                                                         0.066918      -0.037343
                                                         0.021708       0.005696

                          1       4    3px              11.478000       0.325290
                                                         3.700759       0.187466
                                                         1.446884       0.443300
                                                         0.716815       0.267738
                                                         0.247919       0.088285
                                                         0.066918       0.019092
                                                         0.021708       0.000629
                          1       4    3py              11.478000       0.325290
                                                         3.700759       0.187466
                                                         1.446884       0.443300
                                                         0.716815       0.267738
                                                         0.247919       0.088285
                                                         0.066918       0.019092
                                                         0.021708       0.000629
                          1       4    3pz              11.478000       0.325290
                                                         3.700759       0.187466
                                                         1.446884       0.443300
                                                         0.716815       0.267738
                                                         0.247919       0.088285
                                                         0.066918       0.019092
                                                         0.021708       0.000629

                          1       5    4px              11.478000      -1.727188
                                                         3.700759      -0.598393
                                                         1.446884      -3.813128
                                                         0.716815       1.901151
                                                         0.247919      -0.262425
                                                         0.066918       0.006339
                                                         0.021708       0.007345
                          1       5    4py              11.478000      -1.727188
                                                         3.700759      -0.598393
                                                         1.446884      -3.813128
                                                         0.716815       1.901151
                                                         0.247919      -0.262425
                                                         0.066918       0.006339
                                                         0.021708       0.007345
                          1       5    4pz              11.478000      -1.727188
                                                         3.700759      -0.598393
                                                         1.446884      -3.813128
                                                         0.716815       1.901151
                                                         0.247919      -0.262425
                                                         0.066918       0.006339
                                                         0.021708       0.007345

     Potential information for                                       GTH-BLYP-q1

       Description:                       Goedecker-Teter-Hutter pseudopotential
                                           Goedecker et al., PRB 54, 1703 (1996)
                                          Hartwigsen et al., PRB 58, 3641 (1998)
                                                      Krack, TCA 114, 145 (2005)

       Gaussian exponent of the core charge distribution:              12.500000
       Electronic configuration (s p d ...):                                   1

       Parameters of the local part of the GTH pseudopotential:

                          rloc        C1          C2          C3          C4
                        0.200000   -4.195961    0.730498


 MOLECULE KIND INFORMATION

     1. Molecule kind: H2O                       Number of atoms:              3
                     Atom         Atomic kind name
                        1                        O
                        2                        H
                        3                        H

        The name was automatically generated: F
        Number of molecules:    125
        Molecule list:                1         2         3         4         5
                                      6         7         8         9        10
                                     11        12        13        14        15
                                     16        17        18        19        20
                                     21        22        23        24        25
                                     26        27        28        29        30
                                     31        32        33        34        35
                                     36        37        38        39        40
                                     41        42        43        44        45
                                     46        47        48        49        50
                                     51        52        53        54        55
                                     56        57        58        59        60
                                     61        62        63        64        65
                                     66        67        68        69        70
                                     71        72        73        74        75
                                     76        77        78        79        80
                                     81        82        83        84        85
                                     86        87        88        89        90
                                     91        92        93        94        95
                                     96        97        98        99       100
                                    101       102       103       104       105
                                    106       107       108       109       110
                                    111       112       113       114       115
                                    116       117       118       119       120
                                    121       122       123       124       125
        Number of bonds:            2
        Number of bends:            1
        Number of Urey-Bradley:     1


 MOLECULE KIND SET INFORMATION               Total Number of bonds:          250
                                             Total Number of bends:          125
                                             Total Number of Urey-Bradley:   125
                                             Total Number of torsions:         0
                                             Total Number of improper:         0
                                              Total Number of opbends:         0


 TOTAL NUMBERS AND MAXIMUM NUMBERS

  Total number of            - Atomic kinds:                                   2
                             - Atoms:                                        375
                             - Shell sets:                                   375
                             - Shells:                                      2250
                             - Primitive Cartesian functions:               2625
                             - Cartesian basis functions:                   5250
                             - Spherical basis functions:                   5000

  Maximum angular momentum of- Orbital basis functions:                        2
                             - Local part of the GTH pseudopotential:          2
                             - Non-local part of the GTH pseudopotential:      0


 MODULE QUICKSTEP:  ATOMIC COORDINATES IN angstrom

  Atom  Kind  Element       X           Y           Z          Z(eff)       Mass

       1     1 O    8    2.211587    1.358123    0.988082      6.00      15.9994
       2     2 H    1    1.909916    1.693514    1.858991      1.00       1.0079
       3     2 H    1    1.362850    1.115557    0.517777      1.00       1.0079
       4     1 O    8    7.764975    3.158130   15.499358      6.00      15.9994
       5     2 H    1    7.636875    2.195070   15.624684      1.00       1.0079
       6     2 H    1    8.720283    3.369794   15.463599      1.00       1.0079
       7     1 O    8    3.113659    5.952895   10.791099      6.00      15.9994
       8     2 H    1    3.455772    6.691449   10.260760      1.00       1.0079
       9     2 H    1    3.847235    5.610700   11.354097      1.00       1.0079
      10     1 O    8    4.521883   15.227430   14.149875      6.00      15.9994
      11     2 H    1    4.529274   16.156031   14.270531      1.00       1.0079
      12     2 H    1    3.530783   15.045474   14.032847      1.00       1.0079
      13     1 O    8    7.923711    8.994680    5.100922      6.00      15.9994
      14     2 H    1    8.813653    9.032627    4.792984      1.00       1.0079
      15     2 H    1    7.971796    9.670072    5.792458      1.00       1.0079
      16     1 O    8    1.703551    4.386626    8.202749      6.00      15.9994
      17     2 H    1    0.956476    4.075554    7.631466      1.00       1.0079
      18     2 H    1    1.438019    5.282471    8.435886      1.00       1.0079
      19     1 O    8    4.569848    6.278413    6.225820      6.00      15.9994
      20     2 H    1    5.266443    5.647101    5.940874      1.00       1.0079
      21     2 H    1    4.956138    7.163482    5.952117      1.00       1.0079
      22     1 O    8    6.479510   10.299742    3.182818      6.00      15.9994
      23     2 H    1    5.880736   10.990754    3.625194      1.00       1.0079
      24     2 H    1    6.859737    9.615121    3.838224      1.00       1.0079
      25     1 O    8    5.761657    2.769717   13.477066      6.00      15.9994
      26     2 H    1    5.073351    2.869192   14.134160      1.00       1.0079
      27     2 H    1    6.450329    2.989540   14.110711      1.00       1.0079
      28     1 O    8   14.033384    3.189726    8.813830      6.00      15.9994
      29     2 H    1   13.393345    2.594322    9.330025      1.00       1.0079
      30     2 H    1   14.850398    3.221388    9.349568      1.00       1.0079
      31     1 O    8   14.497508   15.239328    3.955110      6.00      15.9994
      32     2 H    1   13.616176   15.231236    4.362263      1.00       1.0079
      33     2 H    1   14.500704   15.523296    3.011530      1.00       1.0079
      34     1 O    8    7.419371   12.519064   14.764639      6.00      15.9994
      35     2 H    1    7.764203   11.705848   14.355770      1.00       1.0079
      36     2 H    1    6.434991   12.457839   14.869730      1.00       1.0079
      37     1 O    8    6.464634    4.739485    9.443922      6.00      15.9994
      38     2 H    1    5.633539    4.518236    8.894288      1.00       1.0079
      39     2 H    1    6.500715    5.672651    9.543795      1.00       1.0079
      40     1 O    8   12.976277   13.381314    0.284298      6.00      15.9994
      41     2 H    1   12.904428   14.174057    0.854666      1.00       1.0079
      42     2 H    1   12.960230   12.531622    0.794328      1.00       1.0079
      43     1 O    8   10.422574    5.374047    8.898558      6.00      15.9994
      44     2 H    1   10.878068    5.780103    8.147223      1.00       1.0079
      45     2 H    1    9.827039    4.685365    8.511679      1.00       1.0079
      46     1 O    8    3.886969   12.947678    3.532973      6.00      15.9994
      47     2 H    1    4.113758   12.396154    4.281590      1.00       1.0079
      48     2 H    1    3.500548   12.361296    2.864535      1.00       1.0079
      49     1 O    8    8.553485    6.944182    7.545881      6.00      15.9994
      50     2 H    1    8.887609    6.089944    8.106205      1.00       1.0079
      51     2 H    1    8.462643    6.708653    6.610780      1.00       1.0079
      52     1 O    8   11.104309   11.496700    8.913051      6.00      15.9994
      53     2 H    1   10.207160   11.253683    8.576953      1.00       1.0079
      54     2 H    1   10.952150   11.916957    9.824686      1.00       1.0079
      55     1 O    8    0.408660    5.627935   13.793189      6.00      15.9994
      56     2 H    1   -0.008765    5.649006   14.691005      1.00       1.0079
      57     2 H    1   -0.313156    5.314714   13.130471      1.00       1.0079
      58     1 O    8   13.318982    3.786349    0.670031      6.00      15.9994
      59     2 H    1   13.612275    3.407115    1.526508      1.00       1.0079
      60     2 H    1   13.998744    4.525668    0.643542      1.00       1.0079
      61     1 O    8   10.826579   11.293463   13.139747      6.00      15.9994
      62     2 H    1   11.652197   10.864415   13.422544      1.00       1.0079
      63     2 H    1   10.993625   12.016800   12.456931      1.00       1.0079
      64     1 O    8    3.434766    0.902174    9.633355      6.00      15.9994
      65     2 H    1    3.962008    1.710578    9.671125      1.00       1.0079
      66     2 H    1    3.765068    0.425489    8.846244      1.00       1.0079
      67     1 O    8    5.211713   10.475181   13.225743      6.00      15.9994
      68     2 H    1    6.219452   10.529691   13.183756      1.00       1.0079
      69     2 H    1    4.915156    9.553879   13.171902      1.00       1.0079
      70     1 O    8    0.308903    3.888555    5.927894      6.00      15.9994
      71     2 H    1    1.129489    4.410919    5.798188      1.00       1.0079
      72     2 H    1    0.431645    2.960741    5.730679      1.00       1.0079
      73     1 O    8   14.859374   11.832414   10.466011      6.00      15.9994
      74     2 H    1   14.353787   10.966066   10.374443      1.00       1.0079
      75     2 H    1   15.241759   11.776692   11.370959      1.00       1.0079
      76     1 O    8    7.955857    2.754560    5.363106      6.00      15.9994
      77     2 H    1    8.558360    2.792605    4.578931      1.00       1.0079
      78     2 H    1    7.241273    3.246624    4.940227      1.00       1.0079
      79     1 O    8    4.949055   14.516463   11.279731      6.00      15.9994
      80     2 H    1    5.121856   14.964640   12.151183      1.00       1.0079
      81     2 H    1    4.636773   15.208098   10.675603      1.00       1.0079
      82     1 O    8    2.366263   13.051865    9.426067      6.00      15.9994
      83     2 H    1    2.422128   13.955540    9.697690      1.00       1.0079
      84     2 H    1    1.706658   12.908066    8.665380      1.00       1.0079
      85     1 O    8   11.365341    5.632817    0.813180      6.00      15.9994
      86     2 H    1   12.113085    4.986478    0.791232      1.00       1.0079
      87     2 H    1   11.702547    6.394334    0.264642      1.00       1.0079
      88     1 O    8    3.140510   11.453879    1.203490      6.00      15.9994
      89     2 H    1    3.247298   10.477519    1.152977      1.00       1.0079
      90     2 H    1    3.857985   11.929021    0.713749      1.00       1.0079
      91     1 O    8    5.113543    5.503533   12.588845      6.00      15.9994
      92     2 H    1    5.425578    4.598831   12.651815      1.00       1.0079
      93     2 H    1    6.014665    5.933029   12.300097      1.00       1.0079
      94     1 O    8    8.309128    3.866635    7.777544      6.00      15.9994
      95     2 H    1    7.917182    3.408724    6.951071      1.00       1.0079
      96     2 H    1    7.536479    4.067747    8.292079      1.00       1.0079
      97     1 O    8    2.845346    3.842960    3.958153      6.00      15.9994
      98     2 H    1    3.085498    4.679402    4.447333      1.00       1.0079
      99     2 H    1    2.648693    4.247504    3.097490      1.00       1.0079
     100     1 O    8    8.445749    9.706548    8.609499      6.00      15.9994
     101     2 H    1    7.655159    9.879412    9.110263      1.00       1.0079
     102     2 H    1    8.455268    8.720448    8.319242      1.00       1.0079
     103     1 O    8    9.916554    4.605863   14.239958      6.00      15.9994
     104     2 H    1   10.457758    5.163928   14.829616      1.00       1.0079
     105     2 H    1   10.410907    3.752644   14.223274      1.00       1.0079
     106     1 O    8    1.626924    9.878925    9.386938      6.00      15.9994
     107     2 H    1    0.883041   10.353208    9.853839      1.00       1.0079
     108     2 H    1    2.359218    9.894922   10.073346      1.00       1.0079
     109     1 O    8    8.135946   15.029221   14.092885      6.00      15.9994
     110     2 H    1    9.108277   15.158630   14.168398      1.00       1.0079
     111     2 H    1    7.876771   14.105782   14.340793      1.00       1.0079
     112     1 O    8    9.303863   14.365917    5.641948      6.00      15.9994
     113     2 H    1    8.656405   15.062945    5.862569      1.00       1.0079
     114     2 H    1    9.242316   14.371310    4.615079      1.00       1.0079
     115     1 O    8   14.370933    7.650058   10.640213      6.00      15.9994
     116     2 H    1   13.849537    6.788822   10.898655      1.00       1.0079
     117     2 H    1   13.667796    8.213234   10.331942      1.00       1.0079
     118     1 O    8    4.411507   11.183006    5.496624      6.00      15.9994
     119     2 H    1    3.703482   10.727965    6.014333      1.00       1.0079
     120     2 H    1    5.020538   11.508124    6.192287      1.00       1.0079
     121     1 O    8    1.080141    1.797482    3.651779      6.00      15.9994
     122     2 H    1    1.574160    2.626570    3.880734      1.00       1.0079
     123     2 H    1    1.754518    1.101101    3.858976      1.00       1.0079
     124     1 O    8   11.866169   11.802009    4.216619      6.00      15.9994
     125     2 H    1   12.474294   11.600614    3.405033      1.00       1.0079
     126     2 H    1   12.444240   12.091620    4.951897      1.00       1.0079
     127     1 O    8    9.451705    1.706636    8.666347      6.00      15.9994
     128     2 H    1    8.965250    2.481807    8.342196      1.00       1.0079
     129     2 H    1    8.806335    1.009933    8.881608      1.00       1.0079
     130     1 O    8    2.638934    5.251190    1.235213      6.00      15.9994
     131     2 H    1    3.035512    4.536631    0.669640      1.00       1.0079
     132     2 H    1    2.925499    6.080257    0.847222      1.00       1.0079
     133     1 O    8   13.812316   14.327255    9.107333      6.00      15.9994
     134     2 H    1   14.000501   13.454878    9.703892      1.00       1.0079
     135     2 H    1   14.535205   14.972966    9.256494      1.00       1.0079
     136     1 O    8    9.967432    8.363735   10.707379      6.00      15.9994
     137     2 H    1   10.005377    7.441528   10.329840      1.00       1.0079
     138     2 H    1    9.688652    8.914760    9.932348      1.00       1.0079
     139     1 O    8    0.410778   12.743022    0.399011      6.00      15.9994
     140     2 H    1    0.779490   12.468023    1.252963      1.00       1.0079
     141     2 H    1   -0.493937   13.111535    0.538246      1.00       1.0079
     142     1 O    8   12.156018    8.818816    0.805241      6.00      15.9994
     143     2 H    1   11.181822    9.059239    0.905407      1.00       1.0079
     144     2 H    1   12.375169    9.111405   -0.106594      1.00       1.0079
     145     1 O    8   14.117418    2.939994    3.085783      6.00      15.9994
     146     2 H    1   14.882990    2.304814    3.399562      1.00       1.0079
     147     2 H    1   13.744890    3.383332    3.883431      1.00       1.0079
     148     1 O    8    8.761400   14.258062   11.364667      6.00      15.9994
     149     2 H    1    8.737989   14.441747   12.353756      1.00       1.0079
     150     2 H    1    8.116656   13.534759   11.216343      1.00       1.0079
     151     1 O    8   13.572644   11.152173    2.162266      6.00      15.9994
     152     2 H    1   14.265184   10.793993    2.719007      1.00       1.0079
     153     2 H    1   13.429866   10.551133    1.440248      1.00       1.0079
     154     1 O    8    3.402778    8.397565    0.853185      6.00      15.9994
     155     2 H    1    4.021916    8.238577    1.645595      1.00       1.0079
     156     2 H    1    3.834586    8.218568    0.006036      1.00       1.0079
     157     1 O    8    0.895276    7.290900    8.499174      6.00      15.9994
     158     2 H    1    0.209610    7.331813    9.196499      1.00       1.0079
     159     2 H    1    1.315200    8.175664    8.746913      1.00       1.0079
     160     1 O    8    8.158553   11.855584    1.730859      6.00      15.9994
     161     2 H    1    7.583045   11.260704    2.320712      1.00       1.0079
     162     2 H    1    7.822949   12.181859    0.812406      1.00       1.0079
     163     1 O    8    9.452181    6.017173    5.104244      6.00      15.9994
     164     2 H    1    9.466684    6.573891    4.288676      1.00       1.0079
     165     2 H    1    9.679984    5.157195    4.799580      1.00       1.0079
     166     1 O    8    0.786587    8.806769    0.091079      6.00      15.9994
     167     2 H    1    0.401958    8.544784    0.979455      1.00       1.0079
     168     2 H    1    1.752735    8.564102    0.073153      1.00       1.0079
     169     1 O    8   10.755356   14.384921   14.179812      6.00      15.9994
     170     2 H    1   10.780318   13.465848   14.448288      1.00       1.0079
     171     2 H    1   11.587310   14.814121   14.532570      1.00       1.0079
     172     1 O    8    8.139696   11.932222    5.608060      6.00      15.9994
     173     2 H    1    8.733563   12.679060    5.904522      1.00       1.0079
     174     2 H    1    7.748957   12.312942    4.761079      1.00       1.0079
     175     1 O    8   13.184685    8.618799    7.328558      6.00      15.9994
     176     2 H    1   12.677693    7.785777    7.232235      1.00       1.0079
     177     2 H    1   13.127473    8.792039    8.297491      1.00       1.0079
     178     1 O    8    0.909372   13.017843    4.721389      6.00      15.9994
     179     2 H    1    0.720647   13.971633    4.539607      1.00       1.0079
     180     2 H    1    0.847600   12.930562    5.638292      1.00       1.0079
     181     1 O    8   11.655512    6.468477    6.902690      6.00      15.9994
     182     2 H    1   12.193671    5.608803    6.729638      1.00       1.0079
     183     2 H    1   10.909366    6.520708    6.159503      1.00       1.0079
     184     1 O    8    2.083746   10.842680   14.134212      6.00      15.9994
     185     2 H    1    2.580711   11.091718   14.962924      1.00       1.0079
     186     2 H    1    1.387427   10.242081   14.481043      1.00       1.0079
     187     1 O    8    7.400628    4.663142    2.079786      6.00      15.9994
     188     2 H    1    7.714531    4.070933    1.269461      1.00       1.0079
     189     2 H    1    7.389647    5.595302    1.718478      1.00       1.0079
     190     1 O    8    8.194062    7.152425   14.279136      6.00      15.9994
     191     2 H    1    7.667197    7.160926   15.176713      1.00       1.0079
     192     2 H    1    8.546143    6.257308   14.093394      1.00       1.0079
     193     1 O    8   12.465293    5.504689   11.084218      6.00      15.9994
     194     2 H    1   13.109587    4.797771   11.355887      1.00       1.0079
     195     2 H    1   11.937154    5.213997   10.305472      1.00       1.0079
     196     1 O    8    0.159611    0.849974   14.823101      6.00      15.9994
     197     2 H    1    0.139105    1.604631   14.180053      1.00       1.0079
     198     2 H    1    0.413424    0.094082   14.303625      1.00       1.0079
     199     1 O    8    9.625698    3.383395    3.228927      6.00      15.9994
     200     2 H    1    8.987315    3.923198    2.767780      1.00       1.0079
     201     2 H    1   10.280034    2.965412    2.688640      1.00       1.0079
     202     1 O    8    0.879830    3.378855   10.647124      6.00      15.9994
     203     2 H    1    1.529274    3.916924   10.184539      1.00       1.0079
     204     2 H    1    1.037249    2.444708   10.330948      1.00       1.0079
     205     1 O    8   15.366385    5.494237    0.893203      6.00      15.9994
     206     2 H    1   14.944661    6.104082    1.537549      1.00       1.0079
     207     2 H    1   16.211401    5.158754    1.250159      1.00       1.0079
     208     1 O    8   12.904399    9.684617   13.591067      6.00      15.9994
     209     2 H    1   13.881238    9.573194   13.493904      1.00       1.0079
     210     2 H    1   12.560930    8.885803   13.167490      1.00       1.0079
     211     1 O    8    0.275936    8.127608    6.126385      6.00      15.9994
     212     2 H    1    0.433528    7.726909    6.985291      1.00       1.0079
     213     2 H    1   -0.563455    8.668690    6.263227      1.00       1.0079
     214     1 O    8   12.776155    4.045400    5.674350      6.00      15.9994
     215     2 H    1   12.409241    3.147953    5.986486      1.00       1.0079
     216     2 H    1   13.750423    3.939534    5.803030      1.00       1.0079
     217     1 O    8   12.712552    1.706217   12.557897      6.00      15.9994
     218     2 H    1   12.657892    1.722323   11.589457      1.00       1.0079
     219     2 H    1   12.934578    0.729866   12.794920      1.00       1.0079
     220     1 O    8    4.908784    7.069131    2.733205      6.00      15.9994
     221     2 H    1    4.937667    7.519948    3.636679      1.00       1.0079
     222     2 H    1    4.482682    6.183616    2.896616      1.00       1.0079
     223     1 O    8   15.373445    9.553612   12.245490      6.00      15.9994
     224     2 H    1   16.201279    8.974423   12.316911      1.00       1.0079
     225     2 H    1   14.879633    9.090472   11.539895      1.00       1.0079
     226     1 O    8    3.178702   15.389828    4.044348      6.00      15.9994
     227     2 H    1    3.331066   14.394953    4.072313      1.00       1.0079
     228     2 H    1    3.909207   15.841560    3.444089      1.00       1.0079
     229     1 O    8    9.718304    6.855379    2.508974      6.00      15.9994
     230     2 H    1   10.541042    6.312387    2.176386      1.00       1.0079
     231     2 H    1    9.978471    7.875205    2.412240      1.00       1.0079
     232     1 O    8    5.605334    4.082039    4.068631      6.00      15.9994
     233     2 H    1    5.960067    4.536149    3.257911      1.00       1.0079
     234     2 H    1    4.650285    3.953977    4.109274      1.00       1.0079
     235     1 O    8   15.453273   10.250853    4.080950      6.00      15.9994
     236     2 H    1   15.621874   11.162754    4.500417      1.00       1.0079
     237     2 H    1   15.896131    9.574409    4.678372      1.00       1.0079
     238     1 O    8    7.341516   15.525391    9.240612      6.00      15.9994
     239     2 H    1    7.756989   15.116514   10.018046      1.00       1.0079
     240     2 H    1    7.025479   16.263059    9.741422      1.00       1.0079
     241     1 O    8    1.904088    3.436534   13.170260      6.00      15.9994
     242     2 H    1    1.725991    3.245600   12.232526      1.00       1.0079
     243     2 H    1    1.231704    4.156625   13.366001      1.00       1.0079
     244     1 O    8   13.879362    0.333181    1.272057      6.00      15.9994
     245     2 H    1   13.734923    1.252652    1.592419      1.00       1.0079
     246     2 H    1   14.523826    0.482585    0.515554      1.00       1.0079
     247     1 O    8    7.069453    7.096231   10.911639      6.00      15.9994
     248     2 H    1    6.503976    7.802356   10.493013      1.00       1.0079
     249     2 H    1    7.931153    7.527401   10.796438      1.00       1.0079
     250     1 O    8   12.475426    9.454279    9.854229      6.00      15.9994
     251     2 H    1   12.059148   10.173832    9.263929      1.00       1.0079
     252     2 H    1   11.678952    9.180787   10.313162      1.00       1.0079
     253     1 O    8   11.230615    2.375472   14.868795      6.00      15.9994
     254     2 H    1   11.784622    2.122550   14.043099      1.00       1.0079
     255     2 H    1   11.866565    2.654451   15.538833      1.00       1.0079
     256     1 O    8   11.563228    6.844143   13.561198      6.00      15.9994
     257     2 H    1   10.663917    7.105289   13.266894      1.00       1.0079
     258     2 H    1   11.839677    6.326492   12.803241      1.00       1.0079
     259     1 O    8    9.648563    9.530641    1.887114      6.00      15.9994
     260     2 H    1   10.228061    9.772040    2.684585      1.00       1.0079
     261     2 H    1    9.026658   10.213901    1.572293      1.00       1.0079
     262     1 O    8    8.110599   10.085300   13.818425      6.00      15.9994
     263     2 H    1    8.868801   10.453864   13.346839      1.00       1.0079
     264     2 H    1    8.256487    9.116199   13.920475      1.00       1.0079
     265     1 O    8    6.733807   13.625980    3.657338      6.00      15.9994
     266     2 H    1    6.912637   13.469619    2.685541      1.00       1.0079
     267     2 H    1    5.745855   13.617399    3.674927      1.00       1.0079
     268     1 O    8    2.314776   10.172323    6.842895      6.00      15.9994
     269     2 H    1    1.999187    9.317217    6.484661      1.00       1.0079
     270     2 H    1    2.141529   10.125264    7.782713      1.00       1.0079
     271     1 O    8    5.933087    1.937677   10.783398      6.00      15.9994
     272     2 H    1    5.682188    2.284790   11.689016      1.00       1.0079
     273     2 H    1    6.156927    2.743253   10.275376      1.00       1.0079
     274     1 O    8    6.007595   12.283238    7.350401      6.00      15.9994
     275     2 H    1    5.873530   13.204018    7.701439      1.00       1.0079
     276     2 H    1    6.834211   12.411313    6.845304      1.00       1.0079
     277     1 O    8    2.037484    7.714576   12.501532      6.00      15.9994
     278     2 H    1    2.349467    7.076273   11.796305      1.00       1.0079
     279     2 H    1    1.318023    7.102277   12.924481      1.00       1.0079
     280     1 O    8    7.628194    0.488447    0.948364      6.00      15.9994
     281     2 H    1    7.712147    0.264924    0.005403      1.00       1.0079
     282     2 H    1    8.517320    0.466380    1.381821      1.00       1.0079
     283     1 O    8    5.167070    8.604161    5.085530      6.00      15.9994
     284     2 H    1    4.982724    9.527512    4.977654      1.00       1.0079
     285     2 H    1    6.106918    8.526450    5.314569      1.00       1.0079
     286     1 O    8   14.405223    3.895221   12.364625      6.00      15.9994
     287     2 H    1   13.907565    3.054047   12.606650      1.00       1.0079
     288     2 H    1   14.858374    3.745777   11.498046      1.00       1.0079
     289     1 O    8   10.380644    0.688213    1.698979      6.00      15.9994
     290     2 H    1   10.614515    0.588831    0.804810      1.00       1.0079
     291     2 H    1   10.427652   -0.213802    2.124473      1.00       1.0079
     292     1 O    8    4.527237    7.955319    9.159033      6.00      15.9994
     293     2 H    1    4.653902    7.588630    8.293651      1.00       1.0079
     294     2 H    1    4.878920    8.855020    8.939180      1.00       1.0079
     295     1 O    8    2.400742    6.540282    4.712913      6.00      15.9994
     296     2 H    1    1.528373    6.874549    5.212566      1.00       1.0079
     297     2 H    1    3.107482    6.620439    5.437060      1.00       1.0079
     298     1 O    8    4.962111   14.876405    8.061352      6.00      15.9994
     299     2 H    1    4.614903   15.363382    7.232261      1.00       1.0079
     300     2 H    1    5.740065   15.407858    8.331737      1.00       1.0079
     301     1 O    8   14.919931    1.280485    6.298981      6.00      15.9994
     302     2 H    1   14.007632    1.497482    6.565046      1.00       1.0079
     303     2 H    1   14.802404    0.670516    5.545624      1.00       1.0079
     304     1 O    8    5.888249   10.361272    9.487012      6.00      15.9994
     305     2 H    1    5.144578   10.571963   10.159377      1.00       1.0079
     306     2 H    1    5.760446   11.047646    8.779829      1.00       1.0079
     307     1 O    8   13.434911   14.643513   12.739493      6.00      15.9994
     308     2 H    1   12.894521   13.934358   13.147113      1.00       1.0079
     309     2 H    1   14.251845   14.561193   13.244514      1.00       1.0079
     310     1 O    8    4.374026    1.050067    6.112604      6.00      15.9994
     311     2 H    1    4.053277    0.550600    5.290664      1.00       1.0079
     312     2 H    1    5.380599    0.995905    5.953985      1.00       1.0079
     313     1 O    8    6.783813    0.105920    5.414791      6.00      15.9994
     314     2 H    1    7.135209    0.979993    5.115618      1.00       1.0079
     315     2 H    1    6.621359   -0.569661    4.671304      1.00       1.0079
     316     1 O    8   12.309423    1.274649    9.873277      6.00      15.9994
     317     2 H    1   12.594328    0.368566    9.531579      1.00       1.0079
     318     2 H    1   11.475336    1.463708    9.405878      1.00       1.0079
     319     1 O    8    6.824666   12.551929   11.027249      6.00      15.9994
     320     2 H    1    6.562910   11.723945   10.602099      1.00       1.0079
     321     2 H    1    6.037755   13.129693   11.047459      1.00       1.0079
     322     1 O    8    7.235040    7.257002    1.252218      6.00      15.9994
     323     2 H    1    8.037074    7.451259    1.816306      1.00       1.0079
     324     2 H    1    6.464910    7.653464    1.750025      1.00       1.0079
     325     1 O    8   10.164504   13.562540    2.994932      6.00      15.9994
     326     2 H    1   10.887495   12.976043    3.369828      1.00       1.0079
     327     2 H    1    9.496669   12.941958    2.707302      1.00       1.0079
     328     1 O    8    4.323551    3.302452    8.152697      6.00      15.9994
     329     2 H    1    3.489049    3.784594    8.005560      1.00       1.0079
     330     2 H    1    4.487144    2.698148    7.414203      1.00       1.0079
     331     1 O    8   11.190762    9.365736    4.296186      6.00      15.9994
     332     2 H    1   11.324444   10.381203    4.308851      1.00       1.0079
     333     2 H    1   11.968358    9.099563    4.777583      1.00       1.0079
     334     1 O    8   11.722466    1.646594    6.797923      6.00      15.9994
     335     2 H    1   11.011527    1.715725    7.433671      1.00       1.0079
     336     2 H    1   11.749361    0.700552    6.495355      1.00       1.0079
     337     1 O    8    1.282654   12.680638   12.219426      6.00      15.9994
     338     2 H    1    1.494135   11.881961   12.856702      1.00       1.0079
     339     2 H    1    1.653329   12.357902   11.346166      1.00       1.0079
     340     1 O    8    5.294122    0.708841    2.662231      6.00      15.9994
     341     2 H    1    6.096890    0.438386    2.142683      1.00       1.0079
     342     2 H    1    5.312127    1.661566    2.476554      1.00       1.0079
     343     1 O    8   11.446345   13.268245   11.112077      6.00      15.9994
     344     2 H    1   10.671903   13.905719   11.001251      1.00       1.0079
     345     2 H    1   12.162410   13.849798   11.377684      1.00       1.0079
     346     1 O    8    0.663974   12.241051    7.392011      6.00      15.9994
     347     2 H    1    1.140026   11.402859    7.001940      1.00       1.0079
     348     2 H    1   -0.313016   12.037138    7.324981      1.00       1.0079
     349     1 O    8    4.322869    7.813737   13.783813      6.00      15.9994
     350     2 H    1    3.416514    7.739973   13.266883      1.00       1.0079
     351     2 H    1    4.811887    7.145493   13.268413      1.00       1.0079
     352     1 O    8    0.742429    1.052177    9.056266      6.00      15.9994
     353     2 H    1    0.428400    1.316430    8.158465      1.00       1.0079
     354     2 H    1    1.703322    1.003650    9.034444      1.00       1.0079
     355     1 O    8   14.668226    8.171785    2.218206      6.00      15.9994
     356     2 H    1   14.636570    8.749621    2.983350      1.00       1.0079
     357     2 H    1   13.758480    8.220333    1.817785      1.00       1.0079
     358     1 O    8    3.711011   10.744245   10.935129      6.00      15.9994
     359     2 H    1    3.353274   11.645305   10.662929      1.00       1.0079
     360     2 H    1    3.807369   10.771712   11.916501      1.00       1.0079
     361     1 O    8    3.691569    3.023271   15.141966      6.00      15.9994
     362     2 H    1    3.206921    2.398531   15.712636      1.00       1.0079
     363     2 H    1    3.098546    3.242127   14.439203      1.00       1.0079
     364     1 O    8   12.016609   14.686619    6.016467      6.00      15.9994
     365     2 H    1   12.295430   13.846413    6.459531      1.00       1.0079
     366     2 H    1   11.042194   14.510116    6.001166      1.00       1.0079
     367     1 O    8    4.629226   12.743853   15.089153      6.00      15.9994
     368     2 H    1    4.617884   13.710129   14.819223      1.00       1.0079
     369     2 H    1    4.462459   12.209069   14.273608      1.00       1.0079
     370     1 O    8   13.186695   12.562249    7.170375      6.00      15.9994
     371     2 H    1   12.615639   12.105095    7.875588      1.00       1.0079
     372     2 H    1   13.458319   13.405544    7.694794      1.00       1.0079
     373     1 O    8    1.874966   14.438735   14.075827      6.00      15.9994
     374     2 H    1    1.573648   13.883292   14.814261      1.00       1.0079
     375     2 H    1    1.681067   13.927261   13.274502      1.00       1.0079



 PW_GRID: Information for grid number                                          1
 PW_GRID: Grid distributed over                                   128 processors
 PW_GRID: Real space group dimensions                                   128    1
 PW_GRID: the grid is blocked:                                                NO
 PW_GRID: Cutoff [a.u.]                                                    500.0
 PW_GRID: spherical cutoff:                                                   NO
 PW_GRID:   Bounds   1           -150     149                Points:         300
 PW_GRID:   Bounds   2           -150     149                Points:         300
 PW_GRID:   Bounds   3           -150     149                Points:         300
 PW_GRID: Volume element (a.u.^3)  0.9372E-03     Volume (a.u.^3)     25303.9229
 PW_GRID: Grid span                                                    FULLSPACE
 PW_GRID:   Distribution                         Average         Max         Min
 PW_GRID:   G-Vectors                           210937.5      211200      210900
 PW_GRID:   G-Rays                                 703.1         704         703
 PW_GRID:   Real Space Points                   210937.5      270000      180000

 PW_GRID: Information for grid number                                          2
 PW_GRID: Grid distributed over                                   128 processors
 PW_GRID: Real space group dimensions                                   128    1
 PW_GRID: the grid is blocked:                                                NO
 PW_GRID: Cutoff [a.u.]                                                    166.7
 PW_GRID: spherical cutoff:                                                   NO
 PW_GRID:   Bounds   1            -90      89                Points:         180
 PW_GRID:   Bounds   2            -90      89                Points:         180
 PW_GRID:   Bounds   3            -90      89                Points:         180
 PW_GRID: Volume element (a.u.^3)  0.4339E-02     Volume (a.u.^3)     25303.9229
 PW_GRID: Grid span                                                    FULLSPACE
 PW_GRID:   Distribution                         Average         Max         Min
 PW_GRID:   G-Vectors                            45562.5       45720       45360
 PW_GRID:   G-Rays                                 253.1         254         252
 PW_GRID:   Real Space Points                    45562.5       64800       32400

 PW_GRID: Information for grid number                                          3
 PW_GRID: Grid distributed over                                   128 processors
 PW_GRID: Real space group dimensions                                     8   16
 PW_GRID: the grid is blocked:                                                NO
 PW_GRID: Cutoff [a.u.]                                                     55.6
 PW_GRID: spherical cutoff:                                                   NO
 PW_GRID:   Bounds   1            -50      49                Points:         100
 PW_GRID:   Bounds   2            -50      49                Points:         100
 PW_GRID:   Bounds   3            -50      49                Points:         100
 PW_GRID: Volume element (a.u.^3)  0.2530E-01     Volume (a.u.^3)     25303.9229
 PW_GRID: Grid span                                                    FULLSPACE
 PW_GRID:   Distribution                         Average         Max         Min
 PW_GRID:   G-Vectors                             7812.5        7900        7700
 PW_GRID:   G-Rays                                  78.1          79          77
 PW_GRID:   Real Space Points                     7812.5        9100        7200

 PW_GRID: Information for grid number                                          4
 PW_GRID: Grid distributed over                                   128 processors
 PW_GRID: Real space group dimensions                                     8   16
 PW_GRID: the grid is blocked:                                                NO
 PW_GRID: Cutoff [a.u.]                                                     18.5
 PW_GRID: spherical cutoff:                                                   NO
 PW_GRID:   Bounds   1            -30      29                Points:          60
 PW_GRID:   Bounds   2            -30      29                Points:          60
 PW_GRID:   Bounds   3            -30      29                Points:          60
 PW_GRID: Volume element (a.u.^3)  0.1171         Volume (a.u.^3)     25303.9229
 PW_GRID: Grid span                                                    FULLSPACE
 PW_GRID:   Distribution                         Average         Max         Min
 PW_GRID:   G-Vectors                             1687.5        1740        1620
 PW_GRID:   G-Rays                                  28.1          29          27
 PW_GRID:   Real Space Points                     1687.5        1920        1260

 PW_GRID: Information for grid number                                          5
 PW_GRID: Grid distributed over                                   128 processors
 PW_GRID: Real space group dimensions                                     8   16
 PW_GRID: the grid is blocked:                                                NO
 PW_GRID: Cutoff [a.u.]                                                      6.2
 PW_GRID: spherical cutoff:                                                   NO
 PW_GRID:   Bounds   1            -18      17                Points:          36
 PW_GRID:   Bounds   2            -18      17                Points:          36
 PW_GRID:   Bounds   3            -18      17                Points:          36
 PW_GRID: Volume element (a.u.^3)  0.5424         Volume (a.u.^3)     25303.9229
 PW_GRID: Grid span                                                    FULLSPACE
 PW_GRID:   Distribution                         Average         Max         Min
 PW_GRID:   G-Vectors                              364.5         396         324
 PW_GRID:   G-Rays                                  10.1          11           9
 PW_GRID:   Real Space Points                      364.5         540         288

 RS_GRID: Information for grid number                                          1
 RS_GRID:   Bounds   1           -150     149                Points:         300
 RS_GRID:   Bounds   2           -150     149                Points:         300
 RS_GRID:   Bounds   3           -150     149                Points:         300
 RS_GRID: Real space distribution over                                  4 groups
 RS_GRID: Real space distribution along direction                              1
 RS_GRID: Border size                                                         20
 RS_GRID: Real space distribution over                                  4 groups
 RS_GRID: Real space distribution along direction                              2
 RS_GRID: Border size                                                         20
 RS_GRID: Real space distribution over                                  8 groups
 RS_GRID: Real space distribution along direction                              3
 RS_GRID: Border size                                                         20
 RS_GRID:   Distribution                         Average         Max         Min
 RS_GRID:   Planes                                 115.0         115         115
 RS_GRID:   Distribution                         Average         Max         Min
 RS_GRID:   Planes                                 115.0         115         115
 RS_GRID:   Distribution                         Average         Max         Min
 RS_GRID:   Planes                                  77.5          78          77

 RS_GRID: Information for grid number                                          2
 RS_GRID:   Bounds   1            -90      89                Points:         180
 RS_GRID:   Bounds   2            -90      89                Points:         180
 RS_GRID:   Bounds   3            -90      89                Points:         180
 RS_GRID: Real space distribution over                                  4 groups
 RS_GRID: Real space distribution along direction                              1
 RS_GRID: Border size                                                         18
 RS_GRID: Real space distribution over                                  4 groups
 RS_GRID: Real space distribution along direction                              2
 RS_GRID: Border size                                                         18
 RS_GRID: Real space distribution over                                  8 groups
 RS_GRID: Real space distribution along direction                              3
 RS_GRID: Border size                                                         18
 RS_GRID:   Distribution                         Average         Max         Min
 RS_GRID:   Planes                                  81.0          81          81
 RS_GRID:   Distribution                         Average         Max         Min
 RS_GRID:   Planes                                  81.0          81          81
 RS_GRID:   Distribution                         Average         Max         Min
 RS_GRID:   Planes                                  58.5          59          58

 RS_GRID: Information for grid number                                          3
 RS_GRID:   Bounds   1            -50      49                Points:         100
 RS_GRID:   Bounds   2            -50      49                Points:         100
 RS_GRID:   Bounds   3            -50      49                Points:         100
 RS_GRID: Real space fully replicated
 RS_GRID: Group size                                                           1

 RS_GRID: Information for grid number                                          4
 RS_GRID:   Bounds   1            -30      29                Points:          60
 RS_GRID:   Bounds   2            -30      29                Points:          60
 RS_GRID:   Bounds   3            -30      29                Points:          60
 RS_GRID: Real space fully replicated
 RS_GRID: Group size                                                           1

 RS_GRID: Information for grid number                                          5
 RS_GRID:   Bounds   1            -18      17                Points:          36
 RS_GRID:   Bounds   2            -18      17                Points:          36
[...]
     Hotelling iter   3 1.00000000   0.787E-01       0.012      195.140
     Hotelling iter   4 1.00000000   0.722E-02       0.012      192.850
     Hotelling iter   5 1.00000000   0.863E-04       0.012      197.511
     Hotelling iter   6 1.00000000   0.170E-07       0.012      193.575
     Hotelling iter   7 1.00000000   0.190E-14       0.012      195.036
 Maximum norm of dE/dT:   5.50633779317290955E-004
 Grad orthogonality error:   2.63556183586719593E-005
 ....updating step direction....
 ....applying preconditioner....
 ....special case 1....
 Dir orthogonality error:   1.18937157167585773E-005
 ....final beta....  0.14853405782994464     
 Step orthogonality error:   2.02783272252422483E-005
 ALMO SCF CG    13   -363.387639290021  -0.893E-04   0.552E-03   0.113E-04     0.86964     1.449
 VAR1: |B*X|:   0.13763639957304563     
 VAR1: |Q.X|:   0.13763639957304563     
 VAR1: |T0+Q.X|:   0.94790175554486489     

     Hotelling iter   1 1.00000000   0.964E+00       0.012      195.976
     Hotelling iter   2 1.00000000   0.338E+00       0.012      194.225
     Hotelling iter   3 1.00000000   0.787E-01       0.016      141.806
     Hotelling iter   4 1.00000000   0.722E-02       0.012      187.929
     Hotelling iter   5 1.00000000   0.863E-04       0.011      198.498
     Hotelling iter   6 1.00000000   0.170E-07       0.012      195.926
     Hotelling iter   7 1.00000000   0.185E-14       0.012      192.797
 Maximum norm of dE/dT:   3.53917474020708353E-004
 Grad orthogonality error:   1.55323257046257892E-005
 ....updating step direction....
 ....applying preconditioner....
 ....special case 1....
 Dir orthogonality error:   6.09991758757790113E-006
 ....final beta....  0.22493696521156165     
 Step orthogonality error:   1.00550123053024657E-005
 ALMO SCF CG    14   -363.387653231983  -0.139E-04   0.355E-03  -0.742E-03     0.91312     1.447
 VAR1: |B*X|:   0.13759401105746363     
 VAR1: |Q.X|:   0.13759401105746363     
 VAR1: |T0+Q.X|:   0.94789386932763586     

     Hotelling iter   1 1.00000000   0.964E+00       0.011      197.578
     Hotelling iter   2 1.00000000   0.338E+00       0.012      193.224
     Hotelling iter   3 1.00000000   0.787E-01       0.012      194.557
     Hotelling iter   4 1.00000000   0.722E-02       0.011      197.992
     Hotelling iter   5 1.00000000   0.863E-04       0.012      193.393
     Hotelling iter   6 1.00000000   0.170E-07       0.012      194.033
     Hotelling iter   7 1.00000000   0.183E-14       0.011      198.372
 Maximum norm of dE/dT:   1.57731418594775770E-004
 Grad orthogonality error:   5.76008799216369990E-006
 Step orthogonality error:   1.01153837456631916E-005
 ALMO SCF LS    15   -363.387656702178   0.000E+00   0.158E-03  -0.237E-01     0.04412     1.140
 VAR1: |B*X|:   0.13759196294273313     
 VAR1: |Q.X|:   0.13759196294273313     
 VAR1: |T0+Q.X|:   0.94789348828391562     

     Hotelling iter   1 1.00000000   0.964E+00       0.012      196.347
     Hotelling iter   2 1.00000000   0.338E+00       0.011      198.720
     Hotelling iter   3 1.00000000   0.787E-01       0.012      195.052
     Hotelling iter   4 1.00000000   0.722E-02       0.012      190.476
     Hotelling iter   5 1.00000000   0.863E-04       0.012      195.565
     Hotelling iter   6 1.00000000   0.170E-07       0.012      186.880
     Hotelling iter   7 1.00000000   0.179E-14       0.012      185.838
 Maximum norm of dE/dT:   1.80968101778110509E-004
 Grad orthogonality error:   5.49573845760877085E-006
 ....updating step direction....
 ....applying preconditioner....
 ....special case 1....
 Dir orthogonality error:   2.49342518847250761E-006
 ....final beta....  0.21201249800137700     
 Step orthogonality error:   4.63863140677205840E-006
 ALMO SCF CG    16   -363.387656709565  -0.348E-05   0.181E-03  -0.138E-06     1.00511     1.444
 VAR1: |B*X|:   0.13756474127030544     
 VAR1: |Q.X|:   0.13756474127030544     
 VAR1: |T0+Q.X|:   0.94789165115171070     

     Hotelling iter   1 1.00000000   0.964E+00       0.012      193.368
     Hotelling iter   2 1.00000000   0.338E+00       0.011      199.714
     Hotelling iter   3 1.00000000   0.787E-01       0.012      194.483
     Hotelling iter   4 1.00000000   0.722E-02       0.012      194.320
     Hotelling iter   5 1.00000000   0.863E-04       0.011      204.174
     Hotelling iter   6 1.00000000   0.170E-07       0.012      196.727
     Hotelling iter   7 1.00000000   0.177E-14       0.012      195.800
 Maximum norm of dE/dT:   1.36863092875943380E-004
 Grad orthogonality error:   2.47322235078369253E-006
 Step orthogonality error:   4.65126408078374008E-006
 ALMO SCF LS    17   -363.387657361244   0.000E+00   0.137E-03   0.689E-01    -0.12993     1.139
 VAR1: |B*X|:   0.13756826025561295     
 VAR1: |Q.X|:   0.13756826025561295     
 VAR1: |T0+Q.X|:   0.94789188864047103     

     Hotelling iter   1 1.00000000   0.964E+00       0.012      197.206
     Hotelling iter   2 1.00000000   0.338E+00       0.011      198.273
     Hotelling iter   3 1.00000000   0.787E-01       0.012      197.533
     Hotelling iter   4 1.00000000   0.722E-02       0.012      195.495
     Hotelling iter   5 1.00000000   0.863E-04       0.011      198.976
     Hotelling iter   6 1.00000000   0.170E-07       0.012      196.864
     Hotelling iter   7 1.00000000   0.183E-14       0.011      198.296
 Maximum norm of dE/dT:   9.57768332341060199E-005
 Grad orthogonality error:   2.17418979178156090E-006
 ....updating step direction....
 ....applying preconditioner....
 ....special case 1....
 Dir orthogonality error:   1.00050096615910762E-006
 ....final beta....  0.17000849029047968     
 Step orthogonality error:   1.79097771909665625E-006
 ALMO SCF CG    18   -363.387657375932  -0.666E-06   0.961E-04   0.796E-07     0.91893     1.441
 VAR1: |B*X|:   0.13756251914757378     
 VAR1: |Q.X|:   0.13756251914757378     
 VAR1: |T0+Q.X|:   0.94789245490219276     

     Hotelling iter   1 1.00000000   0.964E+00       0.012      196.544
     Hotelling iter   2 1.00000000   0.338E+00       0.016      140.368
     Hotelling iter   3 1.00000000   0.787E-01       0.012      189.846
     Hotelling iter   4 1.00000000   0.722E-02       0.012      196.871
     Hotelling iter   5 1.00000000   0.863E-04       0.012      195.659
     Hotelling iter   6 1.00000000   0.170E-07       0.012      190.324
     Hotelling iter   7 1.00000000   0.181E-14       0.012      197.163
 Maximum norm of dE/dT:   4.58377231505478205E-005
 Grad orthogonality error:   9.00722639992697705E-007
 Step orthogonality error:   1.79244178184669946E-006
 ALMO SCF LS    19   -363.387657497912   0.000E+00   0.459E-04  -0.106E-01     0.02214     1.142
 VAR1: |B*X|:   0.13756238081580408     
 VAR1: |Q.X|:   0.13756238081580408     
 VAR1: |T0+Q.X|:   0.94789246854624631     

     Hotelling iter   1 1.00000000   0.964E+00       0.012      196.842
     Hotelling iter   2 1.00000000   0.338E+00       0.012      196.017
     Hotelling iter   3 1.00000000   0.787E-01       0.012      196.019
     Hotelling iter   4 1.00000000   0.722E-02       0.012      195.327
     Hotelling iter   5 1.00000000   0.863E-04       0.012      195.041
     Hotelling iter   6 1.00000000   0.170E-07       0.012      193.713
     Hotelling iter   7 1.00000000   0.182E-14       0.012      195.494
 Maximum norm of dE/dT:   4.92499345535617644E-005
 Grad orthogonality error:   8.82939692770441090E-007
 ....updating step direction....
 ....applying preconditioner....
 ....special case 1....
 Dir orthogonality error:   4.03708816883101145E-007
 ....final beta....  0.22661373933133838     
 Step orthogonality error:   8.07447976154442334E-007
 ALMO SCF CG    20   -363.387657497979  -0.122E-06   0.493E-04  -0.834E-08     0.98813     1.446
 VAR1: |B*X|:   0.13756873088189658     
 VAR1: |Q.X|:   0.13756873088189658     
 VAR1: |T0+Q.X|:   0.94789238040209967     

     Hotelling iter   1 1.00000000   0.964E+00       0.011      198.865
     Hotelling iter   2 1.00000000   0.338E+00       0.012      195.444
     Hotelling iter   3 1.00000000   0.787E-01       0.012      194.999
     Hotelling iter   4 1.00000000   0.722E-02       0.012      196.577
     Hotelling iter   5 1.00000000   0.863E-04       0.012      196.988
     Hotelling iter   6 1.00000000   0.170E-07       0.012      194.255
     Hotelling iter   7 1.00000000   0.185E-14       0.011      199.524
 Maximum norm of dE/dT:   2.72477096416610285E-005
 Grad orthogonality error:   4.11246746516796488E-007
 ....updating step direction....
 ....applying preconditioner....
 ....special case 1....
 Dir orthogonality error:   1.92218081662595266E-007
 ....final beta....  0.24664377836534254     
 Step orthogonality error:   3.36291927010925406E-007
 ALMO SCF CG    21   -363.387657526939  -0.290E-07   0.272E-04   0.135E-02     1.03754     1.441
 VAR1: |B*X|:   0.13757302222120388     
 VAR1: |Q.X|:   0.13757302222120388     
 VAR1: |T0+Q.X|:   0.94789235423345775     

     Hotelling iter   1 1.00000000   0.964E+00       0.012      194.635
     Hotelling iter   2 1.00000000   0.338E+00       0.011      202.548
     Hotelling iter   3 1.00000000   0.787E-01       0.012      187.972
     Hotelling iter   4 1.00000000   0.722E-02       0.012      195.059
     Hotelling iter   5 1.00000000   0.863E-04       0.012      196.095
     Hotelling iter   6 1.00000000   0.170E-07       0.015      152.014
     Hotelling iter   7 1.00000000   0.177E-14       0.012      182.200
 Maximum norm of dE/dT:   2.04194138400439076E-005
 Grad orthogonality error:   2.37554916852069827E-007
 Step orthogonality error:   3.36292821685174445E-007
 ALMO SCF LS    22   -363.387657533054   0.000E+00   0.204E-04   0.756E-01    -0.15467     1.147
 VAR1: |B*X|:   0.13757238249141573     
 VAR1: |Q.X|:   0.13757238249141573     
 VAR1: |T0+Q.X|:   0.94789235813453809     

     Hotelling iter   1 1.00000000   0.964E+00       0.012      195.625
     Hotelling iter   2 1.00000000   0.338E+00       0.011      198.302
     Hotelling iter   3 1.00000000   0.787E-01       0.012      195.653
     Hotelling iter   4 1.00000000   0.722E-02       0.012      193.989
     Hotelling iter   5 1.00000000   0.863E-04       0.011      200.363
     Hotelling iter   6 1.00000000   0.170E-07       0.012      194.309
     Hotelling iter   7 1.00000000   0.178E-14       0.012      196.253
 Maximum norm of dE/dT:   1.33134507450989936E-005
 Grad orthogonality error:   2.53277485902748377E-007
 ....updating step direction....
 ....applying preconditioner....
 ....special case 1....
 Dir orthogonality error:   1.17900901644377287E-007
 ....final beta....  0.20090233678330743     
 Step orthogonality error:   1.77313036678006801E-007
 ALMO SCF CG    23   -363.387657533248  -0.631E-08   0.133E-04   0.298E-07     0.92701     1.441
 VAR1: |B*X|:   0.13757188870952336     
 VAR1: |Q.X|:   0.13757188870952336     
 VAR1: |T0+Q.X|:   0.94789237168223273     

     Hotelling iter   1 1.00000000   0.964E+00       0.012      193.377
     Hotelling iter   2 1.00000000   0.338E+00       0.012      196.795
     Hotelling iter   3 1.00000000   0.787E-01       0.012      193.233
     Hotelling iter   4 1.00000000   0.722E-02       0.012      195.064
     Hotelling iter   5 1.00000000   0.863E-04       0.011      204.185
     Hotelling iter   6 1.00000000   0.170E-07       0.012      193.944
     Hotelling iter   7 1.00000000   0.183E-14       0.012      196.694
 Maximum norm of dE/dT:   6.58119869100099971E-006
 Grad orthogonality error:   1.46738003950826946E-007
 ALMO SCF CG    24   -363.387657534593  -0.631E-08   0.658E-05   0.298E-07     0.92701     0.974
 _ENERGY-0:   -2151.4502841866374     
 _ENERGY-D:   -1.4642552479138773     
 _ENERGY-F:   -2152.9145394345514     

 DECOMPOSITION OF THE DELOCALIZATION ENERGY

 ENERGY| Total FORCE_EVAL ( QS ) energy (a.u.):            -2151.450284225305040


 -------------------------------------------------------------------------------
 ----                             MULTIGRID INFO                            ----
 -------------------------------------------------------------------------------
 count for grid        1:        1664422          cutoff [a.u.]          500.00
 count for grid        2:        1514938          cutoff [a.u.]          166.67
 count for grid        3:        1403544          cutoff [a.u.]           55.56
 count for grid        4:        1380896          cutoff [a.u.]           18.52
 count for grid        5:        2634224          cutoff [a.u.]            6.17
 total gridlevel count  :        8598024

 -------------------------------------------------------------------------------
 -                                                                             -
 -                         MESSAGE PASSING PERFORMANCE                         -
 -                                                                             -
 -------------------------------------------------------------------------------

 ROUTINE             CALLS  TOT TIME [s]  AVE VOLUME [Bytes]  PERFORMANCE [MB/s]
 MP_Group                5         0.000
 MP_Bcast               50         0.011            4195123.            18312.76
 MP_Allreduce          213         1.130               7780.                1.47
 MP_Gather               4         0.005               3584.                2.69
 MP_Sync                 5         0.000
 MP_Alltoall           723        25.874            1628905.               45.52
 MP_ISendRecv        19812         0.060              30827.            10216.90
 MP_Wait             24222         5.797
 MP_ISend             3990         0.176             172551.             3911.45
 MP_IRecv             3990         0.181             172416.             3793.46
 -------------------------------------------------------------------------------


 -------------------------------------------------------------------------------
 -                                                                             -
 -                           R E F E R E N C E S                               -
 -                                                                             -
 -------------------------------------------------------------------------------
 
 CP2K version 2.2.268 (Development Version), the CP2K developers group (2011).
 CP2K is freely available from http://cp2k.berlios.de/ .

 VandeVondele, J; Hutter, J. 
 JOURNAL OF CHEMICAL PHYSICS, 127 (11), 114105 (2007). 
 Gaussian basis sets for accurate calculations on molecular systems in
 gas and condensed phases.
 http://dx.doi.org/10.1063/1.2770708


 Krack, M. 
 THEORETICAL CHEMISTRY ACCOUNTS, 114 (1-3), 145-152 (2005). 
 Pseudopotentials for H to Kr optimized for gradient-corrected
 exchange-correlation functionals.
 http://dx.doi.org/10.1007/s00214-005-0655-y


 VandeVondele, J; Krack, M; Mohamed, F; Parrinello, M; Chassaing, T;
 Hutter, J. COMPUTER PHYSICS COMMUNICATIONS, 167 (2), 103-128 (2005). 
 QUICKSTEP: Fast and accurate density functional calculations using a
 mixed Gaussian and plane waves approach.
 http://dx.doi.org/10.1016/j.cpc.2004.12.014


 Frigo, M; Johnson, SG. 
 PROCEEDINGS OF THE IEEE, 93 (2), 216-231 (2005). 
 The design and implementation of FFTW3.
 http://dx.doi.org/10.1109/JPROC.2004.840301


 Hartwigsen, C; Goedecker, S; Hutter, J. 
 PHYSICAL REVIEW B, 58 (7), 3641-3662 (1998). 
 Relativistic separable dual-space Gaussian pseudopotentials from H to Rn.
 http://dx.doi.org/10.1103/PhysRevB.58.3641


 Lippert, G; Hutter, J; Parrinello, M. 
 MOLECULAR PHYSICS, 92 (3), 477-487 (1997). 
 A hybrid Gaussian and plane wave density functional scheme.
 http://dx.doi.org/10.1080/002689797170220


 Goedecker, S; Teter, M; Hutter, J. 
 PHYSICAL REVIEW B, 54 (3), 1703-1710 (1996). 
 Separable dual-space Gaussian pseudopotentials.
 http://dx.doi.org/10.1103/PhysRevB.54.1703


 BECKE, AD. PHYSICAL REVIEW A, 38 (6), 3098-3100 (1988). 
 DENSITY-FUNCTIONAL EXCHANGE-ENERGY APPROXIMATION WITH CORRECT
 ASYMPTOTIC-BEHAVIOR.
 http://dx.doi.org/10.1103/PhysRevA.38.3098


 LEE, CT; YANG, WT; PARR, RG. 
 PHYSICAL REVIEW B, 37 (2), 785-789 (1988). 
 DEVELOPMENT OF THE COLLE-SALVETTI CORRELATION-ENERGY FORMULA INTO A
 FUNCTIONAL OF THE ELECTRON-DENSITY.
 http://dx.doi.org/10.1103/PhysRevB.37.785


 -------------------------------------------------------------------------------
 -                                                                             -
 -                                T I M I N G                                  -
 -                                                                             -
 -------------------------------------------------------------------------------
 SUBROUTINE                       CALLS  ASD         SELF TIME        TOTAL TIME
                                              AVERAGE  MAXIMUM  AVERAGE  MAXIMUM
 CP2K                                 1  1.0    0.032    0.038  339.684  339.749
 qs_energies_scf                      1  2.0    0.000    0.001  339.088  339.164
 almo_entry_scf                       1  3.0    0.000    0.000  334.881  334.956
 almo_scf_main                        1  4.0    0.000    0.000  276.326  276.418
 almo_scf_dm_to_ks                   25  6.0    0.000    0.000  270.923  271.159
 almo_scf_main_block_diagonal         1  5.0    0.000    0.001  240.560  240.646
 qs_ks_update_qs_env                 26  7.0    0.001    0.001  164.829  165.079
 qs_ks_build_kohn_sham_matrix        26  8.0    0.032    0.043  164.792  165.042
 sum_up_and_integrate                26  9.0    0.161    0.203  133.018  133.270
 integrate_v_rspace                  26 10.0  116.062  119.722  132.856  133.130
 qs_rho_update_rho                   26  7.0    0.000    0.000  115.661  115.689
 calculate_rho_elec                  26  8.0   95.331   98.448  115.661  115.689
 almo_scf_main_quenched_almos         2  5.0    0.034    0.049   82.677   82.707
 almo_post_scf                        1  4.0    0.001    0.001   46.953   46.977
 cp_dbcsr_multiply_d               1913  7.4    0.009    0.010   46.461   46.732
 fft_wrap_pw1pw2                    495 10.9    0.015    0.019   36.370   36.850
 fft_wrap_pw1pw2_500                287 11.9    2.152    2.630   34.509   34.973
 fft3d_ps                           495 12.9    9.784   11.618   30.512   31.268
 qs_vxc_create                       26  9.0    0.002    0.002   27.487   27.618
 xc_vxc_pw_create                    26 10.0    0.449    0.524   27.485   27.617
 cp_dbcsr_mult_NS_NR                279  7.6   25.665   26.403   25.672   26.410
 density_rs2pw                       26  9.0    0.658    0.947   15.409   17.421
 rs_pw_transfer                     261 10.9    0.008    0.022   12.749   14.863
 xc_rho_set_and_dset_create          26 11.0    1.724    2.196   14.089   14.855
 almo_scf_t_to_p                     50  6.4    0.001    0.001   13.665   13.965
 distribute_matrix                   52 10.0    9.628   12.359    9.845   12.429
 almo_scf_init                        1  4.0    0.000    0.000   11.601   11.614
 almo_scf_init_qs                     1  5.0    0.180    0.181   11.299   11.311
 x_to_yz                            182 14.1   10.877   11.199   10.877   11.199
 yz_to_x                            157 13.8    9.452   10.586    9.452   10.586
 potential_pw2rs                     26 11.0    0.017    0.019    9.830    9.866
 -------------------------------------------------------------------------------

  **** **** ******  **  PROGRAM ENDED AT                 2012-06-12 22:16:05.997
 ***** ** ***  *** **   PROGRAM RAN ON                                  nid00029
 **    ****   ******    PROGRAM RAN BY                                  root ;-)
 ***** **    ** ** **   PROGRAM PROCESS ID                                 19472
  **** **  *******  **  PROGRAM STOPPED IN /scratch/weisshorn/rustamr/e298-1.304
                                           388
Application 983428 resources: utime ~42061s, stime ~1488s
