
  **** **** ******  **  PROGRAM STARTED AT               2012-06-12 21:35:24.850
 ***** ** ***  *** **   PROGRAM STARTED ON                              nid00029
 **    ****   ******    PROGRAM STARTED BY                              root ;-)
 ***** **    ** ** **   PROGRAM PROCESS ID                                 19049
  **** **  *******  **  PROGRAM STARTED IN /scratch/weisshorn/rustamr/e298-1.304
                                           388

 CP2K| version string:                CP2K version 2.2.268 (Development Version)
 CP2K| is freely available from                          http://cp2k.berlios.de/
 CP2K| Program compiled at                         Sun May 27 15:14:38 CEST 2012
 CP2K| Program compiled on                                                 rosa5
 CP2K| Program compiled for                                    rosa-new-gfortran
 CP2K| Last CVS entry                xas_tp_scf.F/1.101/Wed Jun 29 13:43:33 2011
 CP2K| Input file name                                           bulk.090008.inp

 GLOBAL| Force Environment number                                              1
 GLOBAL| Basis set file name            /users/rustamr/dev/cp2k/tests/QS/BASIS_M
 GLOBAL| Geminal file name                                         BASIS_GEMINAL
 GLOBAL| Potential file name            /users/rustamr/dev/cp2k/tests/QS/GTH_POT
 GLOBAL| MM Potential file name                                     MM_POTENTIAL
 GLOBAL| Coordinate file name                                      __STD_INPUT__
 GLOBAL| Method name                                                        CP2K
 GLOBAL| Project name                                                       bulk
 GLOBAL| Preferred FFT library                                             FFTW3
 GLOBAL| Run type                                                         ENERGY
 GLOBAL| All-to-all communication in single precision                          F
 GLOBAL| FFTs using library dependent lengths                                  F
 GLOBAL| Global print level                                               MEDIUM
 GLOBAL| Total number of message passing processes                           128
 GLOBAL| Number of threads for this process                                    1
 GLOBAL| This output is from process                                           0

 MEMORY| system memory details [Kb]
 MEMORY|                        rank 0           min           max       average
 MEMORY| MemTotal             33082792      33082792      33082792      33082792
 MEMORY| MemFree              30722856      30719880      30725216      30722813
 MEMORY| Buffers                     0             0             0             0
 MEMORY| Cached                 109492        108768        109492        109137
 MEMORY| Slab                   192392        191212        192392        191967
 MEMORY| SReclaimable             4532          4420          4628          4507
 MEMORY| MemLikelyFree        30836880      30833068      30838704      30836457

 DBCSR| Multiplication driver                                                SMM
 DBCSR| Multiplication stack size                                           1000
 DBCSR| Use subcommunicators                                                   F
 DBCSR| Use MPI combined types                                                 F
 DBCSR| Use MPI memory allocation                                              T


 *** Fundamental physical constants (SI units) ***

 *** Literature: B. J. Mohr and B. N. Taylor,
 ***             CODATA recommended values of the fundamental physical
 ***             constants: 2006, Web Version 5.1
 ***             http://physics.nist.gov/constants

 Speed of light in vacuum [m/s]                             2.99792458000000E+08
 Magnetic constant or permeability of vacuum [N/A**2]       1.25663706143592E-06
 Electric constant or permittivity of vacuum [F/m]          8.85418781762039E-12
 Planck constant (h) [J*s]                                  6.62606896000000E-34
 Planck constant (h-bar) [J*s]                              1.05457162825177E-34
 Elementary charge [C]                                      1.60217648700000E-19
 Electron mass [kg]                                         9.10938215000000E-31
 Electron g factor [ ]                                     -2.00231930436220E+00
 Proton mass [kg]                                           1.67262163700000E-27
 Fine-structure constant                                    7.29735253760000E-03
 Rydberg constant [1/m]                                     1.09737315685270E+07
 Avogrado constant [1/mol]                                  6.02214179000000E+23
 Boltzmann constant [J/K]                                   1.38065040000000E-23
 Atomic mass unit [kg]                                      1.66053878200000E-27
 Bohr radius [m]                                            5.29177208590000E-11

 *** Conversion factors ***

 [u] -> [a.u.]                                              1.82288848426455E+03
 [Angstrom] -> [Bohr] = [a.u.]                              1.88972613288564E+00
 [a.u.] = [Bohr] -> [Angstrom]                              5.29177208590000E-01
 [a.u.] -> [s]                                              2.41888432650478E-17
 [a.u.] -> [fs]                                             2.41888432650478E-02
 [a.u.] -> [J]                                              4.35974393937059E-18
 [a.u.] -> [K]                                              3.15774647902944E+05
 [a.u.] -> [kJ/mol]                                         2.62549961709828E+03
 [a.u.] -> [kcal/mol]                                       6.27509468713739E+02
 [a.u.] -> [Pa]                                             2.94210107994716E+13
 [a.u.] -> [bar]                                            2.94210107994716E+08
 [a.u.] -> [atm]                                            2.90362800883016E+08
 [a.u.] -> [eV]                                             2.72113838565563E+01
 [a.u.] -> [Hz]                                             6.57968392072181E+15
 [a.u.] -> [1/cm] (wave numbers)                            2.19474631370540E+05
 [a.u./Bohr**2] -> [1/cm]                                   5.14048714338585E+03
 

 CELL| Volume [angstrom^3]:                                             3749.654
 CELL| Vector a [angstrom]:      15.536     0.000     0.000    |a| =      15.536
 CELL| Vector b [angstrom]:       0.000    15.536     0.000    |b| =      15.536
 CELL| Vector c [angstrom]:       0.000     0.000    15.536    |c| =      15.536
 CELL| Angle (b,c), alpha [degree]:                                       90.000
 CELL| Angle (a,c), beta  [degree]:                                       90.000
 CELL| Angle (a,b), gamma [degree]:                                       90.000

 CELL_REF| Volume [angstrom^3]:                                         3749.654
 CELL_REF| Vector a [angstrom    15.536     0.000     0.000    |a| =      15.536
 CELL_REF| Vector b [angstrom     0.000    15.536     0.000    |b| =      15.536
 CELL_REF| Vector c [angstrom     0.000     0.000    15.536    |c| =      15.536
 CELL_REF| Angle (b,c), alpha [degree]:                                   90.000
 CELL_REF| Angle (a,c), beta  [degree]:                                   90.000
 CELL_REF| Angle (a,b), gamma [degree]:                                   90.000

 CELL_TOP| Volume [angstrom^3]:                                         3749.654
 CELL_TOP| Vector a [angstrom    15.536     0.000     0.000    |a| =      15.536
 CELL_TOP| Vector b [angstrom     0.000    15.536     0.000    |b| =      15.536
 CELL_TOP| Vector c [angstrom     0.000     0.000    15.536    |c| =      15.536
 CELL_TOP| Angle (b,c), alpha [degree]:                                   90.000
 CELL_TOP| Angle (a,c), beta  [degree]:                                   90.000
 CELL_TOP| Angle (a,b), gamma [degree]:                                   90.000

 GENERATE|  Preliminary Number of Bonds generated:                           250
 GENERATE|  Achieved consistency in connectivity generation.
 GENERATE|  Number of Bonds generated:                                       250
 REORDER |  
 REORDER |  Reordering Molecules. The Reordering of molecules will override all
 REORDER |  information regarding molecule names and residue names.
 REORDER |  New ones will be provided on the basis of the connectivity!
 REORDER |  Number of unique molecules found:      1.
 REORDER |  

 GENERATE|  Preliminary Number of Bonds generated:                           250
 GENERATE|  Achieved consistency in connectivity generation.
 GENERATE|  Number of Bonds generated:                                       250
 GENERATE|  Preliminary Number of Bends generated:                           125
 GENERATE|  Number of Bends generated:                                       125
 GENERATE|  Number of UB generated:                                          125
 GENERATE|  Preliminary Number of Torsions generated:                          0
 GENERATE|  Number of Torsions generated:                                      0
 GENERATE|  Number of Impropers generated:                                     0
 GENERATE|  Number of 1-4 interactions generated:                              0

 *******************************************************************************
 *******************************************************************************
 **                                                                           **
 **     #####                         ##              ##                      **
 **    ##   ##            ##          ##              ##                      **
 **   ##     ##                       ##            ######                    **
 **   ##     ##  ##   ##  ##   #####  ##  ##   ####   ##    #####    #####    **
 **   ##     ##  ##   ##  ##  ##      ## ##   ##      ##   ##   ##  ##   ##   **
 **   ##  ## ##  ##   ##  ##  ##      ####     ###    ##   ######   ######    **
 **    ##  ###   ##   ##  ##  ##      ## ##      ##   ##   ##       ##        **
 **     #######   #####   ##   #####  ##  ##  ####    ##    #####   ##        **
 **           ##                                                    ##        **
 **                                                                           **
 **                                                ... make the atoms dance   **
 **                                                                           **
 **            Copyright (C) by CP2K Developers Group (2000 - 2011)           **
 **                                                                           **
 *******************************************************************************

 DFT| Spin restricted Kohn-Sham (RKS) calculation                            RKS
 DFT| Multiplicity                                                             1
 DFT| Number of spin states                                                    1
 DFT| Charge                                                                   0
 DFT| Self-interaction correction (SIC)                                       NO
 DFT| Cutoffs: density                                              1.000000E-10
 DFT|          gradient                                             1.000000E-10
 DFT|          tau                                                  1.000000E-10
 DFT|          cutoff_smoothing_range                               0.000000E+00
 DFT| XC density smoothing                                                  NONE
 DFT| XC derivatives                                                          PW
 FUNCTIONAL| ROUTINE=NEW
 FUNCTIONAL| BECKE88:
 FUNCTIONAL| A. Becke, Phys. Rev. A 38, 3098 (1988) {LDA version}
 FUNCTIONAL| LYP:
 FUNCTIONAL| C. Lee, W. Yang, R.G. Parr, Phys. Rev. B, 37, 785 (1988) {LDA versi
 FUNCTIONAL| on}

 QS| Method:                                                                 GPW
 QS| Density plane wave grid type                        NON-SPHERICAL FULLSPACE
 QS| Number of grid levels:                                                    5
 QS| Density cutoff [a.u.]:                                                500.0
 QS| Multi grid cutoff [a.u.]: 1) grid level                               500.0
 QS|                           2) grid level                               166.7
 QS|                           3) grid level                                55.6
 QS|                           4) grid level                                18.5
 QS|                           5) grid level                                 6.2
 QS| Grid level progression factor:                                          3.0
 QS| Relative density cutoff [a.u.]:                                        15.0
 QS| Consistent realspace mapping and integration 
 QS| Interaction thresholds: eps_pgf_orb:                                1.0E-05
 QS|                         eps_filter_matrix:                          0.0E+00
 QS|                         eps_core_charge:                            1.0E-12
 QS|                         eps_rho_gspace:                             1.0E-10
 QS|                         eps_rho_rspace:                             1.0E-10
 QS|                         eps_gvg_rspace:                             1.0E-05
 QS|                         eps_ppl:                                    1.0E-02
 QS|                         eps_ppnl:                                   1.0E-07


 ATOMIC KIND INFORMATION

  1. Atomic kind: O                                     Number of atoms:     125

     Orbital basis set information for                          TZV2P-MOLOPT-GTH

       Number of orbital shell sets:                                           1
       Number of orbital shells:                                               8
       Number of primitive Cartesian functions:                                7
       Number of Cartesian basis functions:                                   24
       Number of spherical basis functions:                                   22

       Normalised Cartesian orbitals:

                        Set   Shell   Orbital            Exponent    Coefficient

                          1       1    2s               12.015955      -0.284499
                                                         5.108150      -0.322498
                                                         2.048398       0.148191
                                                         0.832382       0.295475
                                                         0.352316       0.150829
                                                         0.142977       0.015788
                                                         0.046761      -0.000019

                          1       2    3s               12.015955       0.725622
                                                         5.108150       0.644384
                                                         2.048398      -0.157350
                                                         0.832382      -0.853528
                                                         0.352316       0.146068
                                                         0.142977       0.153978
                                                         0.046761       0.000658

                          1       3    4s               12.015955       1.228006
                                                         5.108150       1.271453
                                                         2.048398      -0.537390
                                                         0.832382      -1.759282
                                                         0.352316       1.533697
                                                         0.142977      -0.562509
                                                         0.046761       0.081954

                          1       4    3px              12.015955       1.192141
                                                         5.108150       1.354170
                                                         2.048398       0.897267
                                                         0.832382       0.408839
                                                         0.352316       0.116648
                                                         0.142977       0.022184
                                                         0.046761       0.000308
                          1       4    3py              12.015955       1.192141
                                                         5.108150       1.354170
                                                         2.048398       0.897267
                                                         0.832382       0.408839
                                                         0.352316       0.116648
                                                         0.142977       0.022184
                                                         0.046761       0.000308
                          1       4    3pz              12.015955       1.192141
                                                         5.108150       1.354170
                                                         2.048398       0.897267
                                                         0.832382       0.408839
                                                         0.352316       0.116648
                                                         0.142977       0.022184
                                                         0.046761       0.000308

                          1       5    4px              12.015955      -1.062381
                                                         5.108150      -1.285791
                                                         2.048398      -0.727000
                                                         0.832382      -0.522764
                                                         0.352316       0.182681
                                                         0.142977       0.087560
                                                         0.046761       0.000981
                          1       5    4py              12.015955      -1.062381
                                                         5.108150      -1.285791
                                                         2.048398      -0.727000
                                                         0.832382      -0.522764
                                                         0.352316       0.182681
                                                         0.142977       0.087560
                                                         0.046761       0.000981
                          1       5    4pz              12.015955      -1.062381
                                                         5.108150      -1.285791
                                                         2.048398      -0.727000
                                                         0.832382      -0.522764
                                                         0.352316       0.182681
                                                         0.142977       0.087560
                                                         0.046761       0.000981

                          1       6    5px              12.015955      -0.063722
                                                         5.108150       0.363638
                                                         2.048398       0.015152
                                                         0.832382      -0.083580
                                                         0.352316       0.692078
                                                         0.142977      -0.184312
                                                         0.046761       0.007664
                          1       6    5py              12.015955      -0.063722
                                                         5.108150       0.363638
                                                         2.048398       0.015152
                                                         0.832382      -0.083580
                                                         0.352316       0.692078
                                                         0.142977      -0.184312
                                                         0.046761       0.007664
                          1       6    5pz              12.015955      -0.063722
                                                         5.108150       0.363638
                                                         2.048398       0.015152
                                                         0.832382      -0.083580
                                                         0.352316       0.692078
                                                         0.142977      -0.184312
                                                         0.046761       0.007664

                          1       7    4dx2             12.015955       1.125955
                                                         5.108150       1.160468
                                                         2.048398       0.999335
                                                         0.832382       0.756334
                                                         0.352316       0.048604
                                                         0.142977       0.010378
                                                         0.046761      -0.000027
                          1       7    4dxy             12.015955       1.950212
                                                         5.108150       2.009990
                                                         2.048398       1.730899
                                                         0.832382       1.310009
                                                         0.352316       0.084185
                                                         0.142977       0.017974
                                                         0.046761      -0.000046
                          1       7    4dxz             12.015955       1.950212
                                                         5.108150       2.009990
                                                         2.048398       1.730899
                                                         0.832382       1.310009
                                                         0.352316       0.084185
                                                         0.142977       0.017974
                                                         0.046761      -0.000046
                          1       7    4dy2             12.015955       1.125955
                                                         5.108150       1.160468
                                                         2.048398       0.999335
                                                         0.832382       0.756334
                                                         0.352316       0.048604
                                                         0.142977       0.010378
                                                         0.046761      -0.000027
                          1       7    4dyz             12.015955       1.950212
                                                         5.108150       2.009990
                                                         2.048398       1.730899
                                                         0.832382       1.310009
                                                         0.352316       0.084185
                                                         0.142977       0.017974
                                                         0.046761      -0.000046
                          1       7    4dz2             12.015955       1.125955
                                                         5.108150       1.160468
                                                         2.048398       0.999335
                                                         0.832382       0.756334
                                                         0.352316       0.048604
                                                         0.142977       0.010378
                                                         0.046761      -0.000027

                          1       8    5dx2             12.015955      -2.135425
                                                         5.108150       0.581743
                                                         2.048398      -1.302492
                                                         0.832382       0.098118
                                                         0.352316       0.292085
                                                         0.142977      -0.022029
                                                         0.046761      -0.003795
                          1       8    5dxy             12.015955      -3.698665
                                                         5.108150       1.007608
                                                         2.048398      -2.255983
                                                         0.832382       0.169945
                                                         0.352316       0.505906
                                                         0.142977      -0.038155
                                                         0.046761      -0.006574
                          1       8    5dxz             12.015955      -3.698665
                                                         5.108150       1.007608
                                                         2.048398      -2.255983
                                                         0.832382       0.169945
                                                         0.352316       0.505906
                                                         0.142977      -0.038155
                                                         0.046761      -0.006574
                          1       8    5dy2             12.015955      -2.135425
                                                         5.108150       0.581743
                                                         2.048398      -1.302492
                                                         0.832382       0.098118
                                                         0.352316       0.292085
                                                         0.142977      -0.022029
                                                         0.046761      -0.003795
                          1       8    5dyz             12.015955      -3.698665
                                                         5.108150       1.007608
                                                         2.048398      -2.255983
                                                         0.832382       0.169945
                                                         0.352316       0.505906
                                                         0.142977      -0.038155
                                                         0.046761      -0.006574
                          1       8    5dz2             12.015955      -2.135425
                                                         5.108150       0.581743
                                                         2.048398      -1.302492
                                                         0.832382       0.098118
                                                         0.352316       0.292085
                                                         0.142977      -0.022029
                                                         0.046761      -0.003795

     Potential information for                                       GTH-BLYP-q6

       Description:                       Goedecker-Teter-Hutter pseudopotential
                                           Goedecker et al., PRB 54, 1703 (1996)
                                          Hartwigsen et al., PRB 58, 3641 (1998)
                                                      Krack, TCA 114, 145 (2005)

       Gaussian exponent of the core charge distribution:               8.438331
       Electronic configuration (s p d ...):                               2   4

       Parameters of the local part of the GTH pseudopotential:

                          rloc        C1          C2          C3          C4
                        0.243420  -16.991892    2.566142

       Parameters of the non-local part of the GTH pseudopotential:

                   l      r(l)      h(i,j,l)

                   0    0.220831   18.388851
                   1    0.217201

  2. Atomic kind: H                                     Number of atoms:     250

     Orbital basis set information for                          TZV2P-MOLOPT-GTH

       Number of orbital shell sets:                                           1
       Number of orbital shells:                                               5
       Number of primitive Cartesian functions:                                7
       Number of Cartesian basis functions:                                    9
       Number of spherical basis functions:                                    9

       Normalised Cartesian orbitals:

                        Set   Shell   Orbital            Exponent    Coefficient

                          1       1    2s               11.478000       0.129129
                                                         3.700759       0.177012
                                                         1.446884       0.141285
                                                         0.716815       0.245670
                                                         0.247919       0.094768
                                                         0.066918       0.004062
                                                         0.021708      -0.000053

                          1       2    3s               11.478000      -0.079256
                                                         3.700759      -0.152992
                                                         1.446884       0.015066
                                                         0.716815      -0.331234
                                                         0.247919       0.210690
                                                         0.066918       0.058630
                                                         0.021708      -0.003429

                          1       3    4s               11.478000      -0.246880
                                                         3.700759       0.023016
                                                         1.446884      -1.109374
                                                         0.716815       1.524652
                                                         0.247919      -0.227968
                                                         0.066918      -0.037343
                                                         0.021708       0.005696

                          1       4    3px              11.478000       0.325290
                                                         3.700759       0.187466
                                                         1.446884       0.443300
                                                         0.716815       0.267738
                                                         0.247919       0.088285
                                                         0.066918       0.019092
                                                         0.021708       0.000629
                          1       4    3py              11.478000       0.325290
                                                         3.700759       0.187466
                                                         1.446884       0.443300
                                                         0.716815       0.267738
                                                         0.247919       0.088285
                                                         0.066918       0.019092
                                                         0.021708       0.000629
                          1       4    3pz              11.478000       0.325290
                                                         3.700759       0.187466
                                                         1.446884       0.443300
                                                         0.716815       0.267738
                                                         0.247919       0.088285
                                                         0.066918       0.019092
                                                         0.021708       0.000629

                          1       5    4px              11.478000      -1.727188
                                                         3.700759      -0.598393
                                                         1.446884      -3.813128
                                                         0.716815       1.901151
                                                         0.247919      -0.262425
                                                         0.066918       0.006339
                                                         0.021708       0.007345
                          1       5    4py              11.478000      -1.727188
                                                         3.700759      -0.598393
                                                         1.446884      -3.813128
                                                         0.716815       1.901151
                                                         0.247919      -0.262425
                                                         0.066918       0.006339
                                                         0.021708       0.007345
                          1       5    4pz              11.478000      -1.727188
                                                         3.700759      -0.598393
                                                         1.446884      -3.813128
                                                         0.716815       1.901151
                                                         0.247919      -0.262425
                                                         0.066918       0.006339
                                                         0.021708       0.007345

     Potential information for                                       GTH-BLYP-q1

       Description:                       Goedecker-Teter-Hutter pseudopotential
                                           Goedecker et al., PRB 54, 1703 (1996)
                                          Hartwigsen et al., PRB 58, 3641 (1998)
                                                      Krack, TCA 114, 145 (2005)

       Gaussian exponent of the core charge distribution:              12.500000
       Electronic configuration (s p d ...):                                   1

       Parameters of the local part of the GTH pseudopotential:

                          rloc        C1          C2          C3          C4
                        0.200000   -4.195961    0.730498


 MOLECULE KIND INFORMATION

     1. Molecule kind: H2O                       Number of atoms:              3
                     Atom         Atomic kind name
                        1                        O
                        2                        H
                        3                        H

        The name was automatically generated: F
        Number of molecules:    125
        Molecule list:                1         2         3         4         5
                                      6         7         8         9        10
                                     11        12        13        14        15
                                     16        17        18        19        20
                                     21        22        23        24        25
                                     26        27        28        29        30
                                     31        32        33        34        35
                                     36        37        38        39        40
                                     41        42        43        44        45
                                     46        47        48        49        50
                                     51        52        53        54        55
                                     56        57        58        59        60
                                     61        62        63        64        65
                                     66        67        68        69        70
                                     71        72        73        74        75
                                     76        77        78        79        80
                                     81        82        83        84        85
                                     86        87        88        89        90
                                     91        92        93        94        95
                                     96        97        98        99       100
                                    101       102       103       104       105
                                    106       107       108       109       110
                                    111       112       113       114       115
                                    116       117       118       119       120
                                    121       122       123       124       125
        Number of bonds:            2
        Number of bends:            1
        Number of Urey-Bradley:     1


 MOLECULE KIND SET INFORMATION               Total Number of bonds:          250
                                             Total Number of bends:          125
                                             Total Number of Urey-Bradley:   125
                                             Total Number of torsions:         0
                                             Total Number of improper:         0
                                              Total Number of opbends:         0


 TOTAL NUMBERS AND MAXIMUM NUMBERS

  Total number of            - Atomic kinds:                                   2
                             - Atoms:                                        375
                             - Shell sets:                                   375
                             - Shells:                                      2250
                             - Primitive Cartesian functions:               2625
                             - Cartesian basis functions:                   5250
                             - Spherical basis functions:                   5000

  Maximum angular momentum of- Orbital basis functions:                        2
                             - Local part of the GTH pseudopotential:          2
                             - Non-local part of the GTH pseudopotential:      0


 MODULE QUICKSTEP:  ATOMIC COORDINATES IN angstrom

  Atom  Kind  Element       X           Y           Z          Z(eff)       Mass

       1     1 O    8    2.069704    1.422734    1.440471      6.00      15.9994
       2     2 H    1    1.580830    1.797144    2.244354      1.00       1.0079
       3     2 H    1    1.403909    1.011453    0.809795      1.00       1.0079
       4     1 O    8    7.856826    2.652923   14.894536      6.00      15.9994
       5     2 H    1    8.371393    1.826355   14.749555      1.00       1.0079
       6     2 H    1    8.486211    3.324506   14.527829      1.00       1.0079
       7     1 O    8    3.185044    6.072335   10.741959      6.00      15.9994
       8     2 H    1    3.433983    6.785143   10.131917      1.00       1.0079
       9     2 H    1    4.011137    5.873816   11.268385      1.00       1.0079
      10     1 O    8    4.516860   15.157460   14.048910      6.00      15.9994
      11     2 H    1    4.670275   16.082640   14.201587      1.00       1.0079
      12     2 H    1    3.512786   15.155782   14.299101      1.00       1.0079
      13     1 O    8    7.859353    9.416175    4.988720      6.00      15.9994
      14     2 H    1    8.857788    9.166475    4.863668      1.00       1.0079
      15     2 H    1    7.795806   10.403981    5.275275      1.00       1.0079
      16     1 O    8    1.692793    4.899655    8.009763      6.00      15.9994
      17     2 H    1    1.406293    4.860495    7.113906      1.00       1.0079
      18     2 H    1    1.600774    5.826412    8.331207      1.00       1.0079
      19     1 O    8    4.290902    6.390309    6.988315      6.00      15.9994
      20     2 H    1    4.497035    5.507554    7.273937      1.00       1.0079
      21     2 H    1    5.077125    6.794694    6.507622      1.00       1.0079
      22     1 O    8    6.068036   10.428011    2.837294      6.00      15.9994
      23     2 H    1    5.339128   11.179909    2.636579      1.00       1.0079
      24     2 H    1    5.752239   10.150306    3.707946      1.00       1.0079
      25     1 O    8    5.564453    2.786010   13.434698      6.00      15.9994
      26     2 H    1    4.877452    2.797037   14.187263      1.00       1.0079
      27     2 H    1    6.416456    2.772124   13.832726      1.00       1.0079
      28     1 O    8   13.771355    3.408351    8.423177      6.00      15.9994
      29     2 H    1   13.122250    2.870005    8.949437      1.00       1.0079
      30     2 H    1   14.555283    3.563846    8.990927      1.00       1.0079
      31     1 O    8   14.503830   14.718377    4.092180      6.00      15.9994
      32     2 H    1   13.677403   14.846439    4.608672      1.00       1.0079
      33     2 H    1   14.310969   15.235720    3.234427      1.00       1.0079
      34     1 O    8    7.606102   12.814873   14.863482      6.00      15.9994
      35     2 H    1    7.931590   12.127727   14.199900      1.00       1.0079
      36     2 H    1    6.640142   12.583423   15.001872      1.00       1.0079
      37     1 O    8    6.236397    4.702648    9.307155      6.00      15.9994
      38     2 H    1    5.431527    4.293929    8.758894      1.00       1.0079
      39     2 H    1    6.148124    5.662825    9.498476      1.00       1.0079
      40     1 O    8   13.158670   13.627462    0.263765      6.00      15.9994
      41     2 H    1   13.286854   14.545787    0.669780      1.00       1.0079
      42     2 H    1   13.081497   13.017092    1.009850      1.00       1.0079
      43     1 O    8   10.136052    5.720910    9.069064      6.00      15.9994
      44     2 H    1   10.876344    5.722271    8.343922      1.00       1.0079
      45     2 H    1    9.652484    4.813178    8.910906      1.00       1.0079
      46     1 O    8    4.388009   12.406816    3.080463      6.00      15.9994
      47     2 H    1    4.005290   11.923100    3.835888      1.00       1.0079
      48     2 H    1    3.733737   12.114908    2.382070      1.00       1.0079
      49     1 O    8    8.449086    7.391295    7.454836      6.00      15.9994
      50     2 H    1    8.815283    6.728555    7.986189      1.00       1.0079
      51     2 H    1    8.918440    7.384107    6.620129      1.00       1.0079
      52     1 O    8   10.841244   11.766375    8.598593      6.00      15.9994
      53     2 H    1   10.217202   10.954778    8.750569      1.00       1.0079
      54     2 H    1   10.823986   12.271588    9.349284      1.00       1.0079
      55     1 O    8    0.426518    5.761392   13.630361      6.00      15.9994
      56     2 H    1    0.305054    5.820522   14.636040      1.00       1.0079
      57     2 H    1   -0.422409    5.408454   13.226065      1.00       1.0079
      58     1 O    8   13.119220    3.939680    0.881799      6.00      15.9994
      59     2 H    1   13.232736    3.579937    1.815895      1.00       1.0079
      60     2 H    1   13.847336    4.558489    0.732845      1.00       1.0079
      61     1 O    8   10.588203   11.635041   12.971288      6.00      15.9994
      62     2 H    1   11.499079   11.233308   13.114118      1.00       1.0079
      63     2 H    1   10.733913   12.204454   12.147288      1.00       1.0079
      64     1 O    8    3.146064    0.735975    9.517648      6.00      15.9994
      65     2 H    1    3.485638    1.591501    9.809356      1.00       1.0079
      66     2 H    1    3.893325    0.176353    9.166251      1.00       1.0079
      67     1 O    8    5.412767   10.266669   13.437691      6.00      15.9994
      68     2 H    1    6.380549   10.333561   13.657444      1.00       1.0079
      69     2 H    1    5.182857    9.312560   13.485266      1.00       1.0079
      70     1 O    8    0.114337    3.738023    6.155087      6.00      15.9994
      71     2 H    1    0.401329    3.366938    5.308045      1.00       1.0079
      72     2 H    1   -0.073120    2.961425    6.695130      1.00       1.0079
      73     1 O    8   15.194996   11.766010   10.960046      6.00      15.9994
      74     2 H    1   15.155816   10.899419   11.459646      1.00       1.0079
      75     2 H    1   15.890298   12.222733   11.432282      1.00       1.0079
      76     1 O    8    7.913974    2.511014    5.305311      6.00      15.9994
      77     2 H    1    8.554739    2.834896    4.688970      1.00       1.0079
      78     2 H    1    6.994076    2.748929    5.013597      1.00       1.0079
      79     1 O    8    4.575513   14.371304   11.481086      6.00      15.9994
      80     2 H    1    4.702684   14.571041   12.443157      1.00       1.0079
      81     2 H    1    4.211481   15.266189   11.199529      1.00       1.0079
      82     1 O    8    2.313972   13.350827    9.395422      6.00      15.9994
      83     2 H    1    2.789139   13.998822    8.871703      1.00       1.0079
      84     2 H    1    1.731747   12.894203    8.687571      1.00       1.0079
      85     1 O    8   11.434455    6.109702    0.439622      6.00      15.9994
      86     2 H    1   12.042500    5.407845    0.786386      1.00       1.0079
      87     2 H    1   11.706805    6.428020   -0.447196      1.00       1.0079
      88     1 O    8    3.018194   11.363233    1.146863      6.00      15.9994
      89     2 H    1    3.224364   10.349134    1.129070      1.00       1.0079
      90     2 H    1    3.634375   11.707018    0.405804      1.00       1.0079
      91     1 O    8    5.050553    5.238400   12.385218      6.00      15.9994
      92     2 H    1    5.316847    4.404585   12.858269      1.00       1.0079
      93     2 H    1    5.894150    5.563958   11.921795      1.00       1.0079
      94     1 O    8    8.478133    3.798438    7.877820      6.00      15.9994
      95     2 H    1    8.301165    3.288216    7.077667      1.00       1.0079
      96     2 H    1    7.641230    4.083254    8.232347      1.00       1.0079
      97     1 O    8    3.047002    4.025020    4.059483      6.00      15.9994
      98     2 H    1    2.633785    4.771033    4.434830      1.00       1.0079
      99     2 H    1    3.225207    4.263456    3.146548      1.00       1.0079
     100     1 O    8    8.874850    9.724963    8.880710      6.00      15.9994
     101     2 H    1    8.042165   10.198093    9.273109      1.00       1.0079
     102     2 H    1    8.598617    8.950875    8.372676      1.00       1.0079
     103     1 O    8    9.581184    4.705092   14.503828      6.00      15.9994
     104     2 H    1   10.141082    5.257747   15.115622      1.00       1.0079
     105     2 H    1   10.133917    3.854444   14.612225      1.00       1.0079
     106     1 O    8    1.680648   10.079537    9.714320      6.00      15.9994
     107     2 H    1    0.985944   10.739487    9.561989      1.00       1.0079
     108     2 H    1    2.326088   10.456247   10.333212      1.00       1.0079
     109     1 O    8    8.309262   15.428752   13.696932      6.00      15.9994
     110     2 H    1    8.968229   14.774426   13.880989      1.00       1.0079
     111     2 H    1    7.490196   15.140289   14.120183      1.00       1.0079
     112     1 O    8    9.355733   14.293362    5.012747      6.00      15.9994
     113     2 H    1    8.451045   14.686962    5.276122      1.00       1.0079
     114     2 H    1    9.205931   13.897580    4.118489      1.00       1.0079
     115     1 O    8   14.180290    7.532164   10.275967      6.00      15.9994
     116     2 H    1   13.709972    6.712855   10.567692      1.00       1.0079
     117     2 H    1   13.532090    8.140568    9.727400      1.00       1.0079
     118     1 O    8    4.162657   10.979332    5.502869      6.00      15.9994
     119     2 H    1    3.333814   10.470820    5.753806      1.00       1.0079
     120     2 H    1    4.571388   11.213051    6.386229      1.00       1.0079
     121     1 O    8    0.854484    2.481374    3.821275      6.00      15.9994
     122     2 H    1    1.613034    3.076051    3.872363      1.00       1.0079
     123     2 H    1    1.267331    1.670100    4.078668      1.00       1.0079
     124     1 O    8   11.546593   12.166968    4.181630      6.00      15.9994
     125     2 H    1   12.277635   11.951433    3.524966      1.00       1.0079
     126     2 H    1   11.989126   12.990775    4.485440      1.00       1.0079
     127     1 O    8    9.595640    1.367183    8.471982      6.00      15.9994
     128     2 H    1    9.237661    2.255093    8.425743      1.00       1.0079
     129     2 H    1    8.922615    0.904668    9.033664      1.00       1.0079
     130     1 O    8    2.946474    5.223018    1.434177      6.00      15.9994
     131     2 H    1    3.641892    4.765938    0.834972      1.00       1.0079
     132     2 H    1    3.176428    6.174761    1.460767      1.00       1.0079
     133     1 O    8   14.463859   14.360773   10.081553      6.00      15.9994
     134     2 H    1   14.782806   13.414935   10.302352      1.00       1.0079
     135     2 H    1   15.188023   14.983686    9.701065      1.00       1.0079
     136     1 O    8   10.255475    7.834410   10.680766      6.00      15.9994
     137     2 H    1   10.163118    6.902424   10.263559      1.00       1.0079
     138     2 H    1    9.621193    8.456312   10.186294      1.00       1.0079
     139     1 O    8    0.182623   12.281248   15.325838      6.00      15.9994
     140     2 H    1    0.241721   11.461686   15.868255      1.00       1.0079
     141     2 H    1   -0.729828   12.665665   15.400825      1.00       1.0079
     142     1 O    8   12.876057    9.253162    0.848695      6.00      15.9994
     143     2 H    1   11.924076    9.456420    1.138318      1.00       1.0079
     144     2 H    1   13.000741    9.490427   -0.089104      1.00       1.0079
     145     1 O    8   13.183945    2.639716    3.201684      6.00      15.9994
     146     2 H    1   14.157057    2.658086    3.273597      1.00       1.0079
     147     2 H    1   12.856534    3.129039    4.000076      1.00       1.0079
     148     1 O    8    8.676940   14.221414   11.304489      6.00      15.9994
     149     2 H    1    8.536605   14.732655   12.134906      1.00       1.0079
     150     2 H    1    8.035582   13.412277   11.443510      1.00       1.0079
     151     1 O    8   13.353792   11.398666    2.205161      6.00      15.9994
     152     2 H    1   14.004908   11.122758    2.935093      1.00       1.0079
     153     2 H    1   12.979971   10.572285    1.898089      1.00       1.0079
     154     1 O    8    3.180175    8.693048    0.894286      6.00      15.9994
     155     2 H    1    3.506652    8.275525    1.732847      1.00       1.0079
     156     2 H    1    3.462050    8.035154    0.194790      1.00       1.0079
     157     1 O    8    1.060151    7.411121    8.853306      6.00      15.9994
     158     2 H    1    0.167994    7.210230    9.215246      1.00       1.0079
     159     2 H    1    1.381822    8.269033    9.230376      1.00       1.0079
     160     1 O    8    8.240895   11.848026    1.787145      6.00      15.9994
     161     2 H    1    7.657591   11.253267    2.326000      1.00       1.0079
     162     2 H    1    7.776840   12.209941    0.971210      1.00       1.0079
     163     1 O    8    9.943998    5.607270    4.788010      6.00      15.9994
     164     2 H    1    9.527020    6.174727    4.174369      1.00       1.0079
     165     2 H    1    9.907303    4.698833    4.384874      1.00       1.0079
     166     1 O    8    0.552420    9.387727    0.004454      6.00      15.9994
     167     2 H    1    0.262608    8.637162    0.590919      1.00       1.0079
     168     2 H    1    1.419734    9.517075    0.442795      1.00       1.0079
     169     1 O    8   10.519344   13.927820   14.433849      6.00      15.9994
     170     2 H    1   10.410875   13.047984   13.963140      1.00       1.0079
     171     2 H    1   11.446178   13.997078   14.758197      1.00       1.0079
     172     1 O    8    7.471126   11.986507    5.576103      6.00      15.9994
     173     2 H    1    8.301513   12.242782    5.947994      1.00       1.0079
     174     2 H    1    7.203148   12.636480    4.822967      1.00       1.0079
     175     1 O    8   12.946274    8.429667    6.324983      6.00      15.9994
     176     2 H    1   12.691539    7.498492    6.574148      1.00       1.0079
     177     2 H    1   12.750072    9.086098    7.017184      1.00       1.0079
     178     1 O    8    0.648087   12.498594    4.557286      6.00      15.9994
     179     2 H    1    0.174158   13.279603    4.204043      1.00       1.0079
     180     2 H    1    0.705100   12.565930    5.539747      1.00       1.0079
     181     1 O    8   11.863916    6.036183    7.168230      6.00      15.9994
     182     2 H    1   12.313073    5.130289    7.040394      1.00       1.0079
     183     2 H    1   11.185499    6.120884    6.361331      1.00       1.0079
     184     1 O    8    2.360231   11.028572   13.778618      6.00      15.9994
     185     2 H    1    1.497478   11.316319   14.158612      1.00       1.0079
     186     2 H    1    2.343325   10.056893   13.646432      1.00       1.0079
     187     1 O    8    7.264848    4.115205    1.793310      6.00      15.9994
     188     2 H    1    7.788394    3.747848    1.022757      1.00       1.0079
     189     2 H    1    7.194820    5.095313    1.669400      1.00       1.0079
     190     1 O    8    8.123051    7.472012   14.114059      6.00      15.9994
     191     2 H    1    7.703767    7.326288   14.984057      1.00       1.0079
     192     2 H    1    8.687698    6.671347   13.931033      1.00       1.0079
     193     1 O    8   12.629027    5.457250   11.198082      6.00      15.9994
     194     2 H    1   13.092572    4.683219   11.739825      1.00       1.0079
     195     2 H    1   11.757293    5.163966   10.854157      1.00       1.0079
     196     1 O    8    0.398351    1.664670   14.728319      6.00      15.9994
     197     2 H    1    0.710742    2.440457   14.238848      1.00       1.0079
     198     2 H    1    0.799672    0.824424   14.386388      1.00       1.0079
     199     1 O    8    9.580083    3.381186    3.379221      6.00      15.9994
     200     2 H    1    8.846947    3.657697    2.784971      1.00       1.0079
     201     2 H    1    9.813783    2.514087    3.141112      1.00       1.0079
     202     1 O    8    0.416084    3.403427   10.280045      6.00      15.9994
     203     2 H    1    0.914168    3.881344    9.555899      1.00       1.0079
     204     2 H    1    0.606402    2.424696   10.143358      1.00       1.0079
     205     1 O    8    0.185921    5.338097    0.756801      6.00      15.9994
     206     2 H    1   -0.082865    6.110047    1.274421      1.00       1.0079
     207     2 H    1    1.170644    5.178802    0.850337      1.00       1.0079
     208     1 O    8   12.921158    9.889739   13.795132      6.00      15.9994
     209     2 H    1   13.886078    9.969108   13.646308      1.00       1.0079
     210     2 H    1   12.751869    8.971314   13.558909      1.00       1.0079
     211     1 O    8    0.153028    7.977684    6.459484      6.00      15.9994
     212     2 H    1    0.416758    7.776617    7.481975      1.00       1.0079
     213     2 H    1   -0.783676    8.285206    6.457141      1.00       1.0079
     214     1 O    8   12.877382    3.912829    5.584501      6.00      15.9994
     215     2 H    1   12.584898    3.071212    5.994897      1.00       1.0079
     216     2 H    1   13.727497    4.153129    6.077744      1.00       1.0079
     217     1 O    8   12.790650    1.240732   12.709731      6.00      15.9994
     218     2 H    1   12.824592    1.325999   11.725372      1.00       1.0079
     219     2 H    1   13.088771    0.320920   12.825879      1.00       1.0079
     220     1 O    8    3.902555    7.526910    3.136095      6.00      15.9994
     221     2 H    1    4.571340    7.653520    3.845690      1.00       1.0079
     222     2 H    1    3.048337    7.261243    3.630444      1.00       1.0079
     223     1 O    8   15.291614    9.243161   11.910981      6.00      15.9994
     224     2 H    1   16.185589    8.858706   12.133286      1.00       1.0079
     225     2 H    1   15.028210    8.503564   11.358820      1.00       1.0079
     226     1 O    8    2.908295    0.121225    4.087822      6.00      15.9994
     227     2 H    1    2.594396   -0.802139    4.212921      1.00       1.0079
     228     2 H    1    3.419801    0.130774    3.291004      1.00       1.0079
     229     1 O    8    9.501300    7.121465    2.473168      6.00      15.9994
     230     2 H    1   10.239891    6.589914    2.211531      1.00       1.0079
     231     2 H    1    9.660878    8.051531    2.153681      1.00       1.0079
     232     1 O    8    5.671787    3.952453    4.167839      6.00      15.9994
     233     2 H    1    5.962617    3.784793    3.187355      1.00       1.0079
     234     2 H    1    4.703266    3.932202    4.131005      1.00       1.0079
     235     1 O    8    0.047261    9.913198    3.512644      6.00      15.9994
     236     2 H    1    0.539863   10.778490    3.538438      1.00       1.0079
     237     2 H    1    0.388520    9.295747    4.212659      1.00       1.0079
     238     1 O    8    7.291149    0.182898    9.450587      6.00      15.9994
     239     2 H    1    7.687177   -0.431041   10.029164      1.00       1.0079
     240     2 H    1    6.836546    0.901479    9.917221      1.00       1.0079
     241     1 O    8    1.903249    3.566220   13.199275      6.00      15.9994
     242     2 H    1    1.968611    3.437860   12.213598      1.00       1.0079
     243     2 H    1    1.309575    4.326364   13.356718      1.00       1.0079
     244     1 O    8   14.005053    0.424834    1.464916      6.00      15.9994
     245     2 H    1   13.224924    1.033375    1.498472      1.00       1.0079
     246     2 H    1   14.611240    0.884956    0.883968      1.00       1.0079
     247     1 O    8    6.954075    7.118905   11.683421      6.00      15.9994
     248     2 H    1    6.443485    7.858515   11.346523      1.00       1.0079
     249     2 H    1    7.588327    7.553529   12.294773      1.00       1.0079
     250     1 O    8   12.331678    9.418485    9.382785      6.00      15.9994
     251     2 H    1   11.843241   10.227118    9.456649      1.00       1.0079
     252     2 H    1   11.786875    8.676557    9.655782      1.00       1.0079
     253     1 O    8   11.302074    2.545155   14.798690      6.00      15.9994
     254     2 H    1   11.678445    2.417579   13.920909      1.00       1.0079
     255     2 H    1   11.972604    2.962310   15.318782      1.00       1.0079
     256     1 O    8   12.329927    7.084518   13.245339      6.00      15.9994
     257     2 H    1   11.767959    7.680377   12.720318      1.00       1.0079
     258     2 H    1   12.570223    6.324255   12.639800      1.00       1.0079
     259     1 O    8   10.424852    9.783848    1.824490      6.00      15.9994
     260     2 H    1   10.617144    9.850257    2.767884      1.00       1.0079
     261     2 H    1    9.659405   10.452638    1.732882      1.00       1.0079
     262     1 O    8    8.285181   10.370094   13.610769      6.00      15.9994
     263     2 H    1    9.110707   10.662489   13.195759      1.00       1.0079
     264     2 H    1    8.488162    9.465734   14.005957      1.00       1.0079
     265     1 O    8    6.960182   13.585131    3.497302      6.00      15.9994
     266     2 H    1    7.435265   13.097740    2.794061      1.00       1.0079
     267     2 H    1    6.049443   13.737785    3.116556      1.00       1.0079
     268     1 O    8    1.870705   10.004404    6.877750      6.00      15.9994
     269     2 H    1    1.359640    9.223973    6.551896      1.00       1.0079
     270     2 H    1    2.102181    9.786969    7.763922      1.00       1.0079
     271     1 O    8    5.956236    2.099504   10.949653      6.00      15.9994
     272     2 H    1    6.044936    2.257449   11.915523      1.00       1.0079
     273     2 H    1    5.946154    3.009001   10.576617      1.00       1.0079
     274     1 O    8    5.525542   11.914728    7.600836      6.00      15.9994
     275     2 H    1    5.039789   12.704726    7.796523      1.00       1.0079
     276     2 H    1    6.297826   12.108940    6.973694      1.00       1.0079
     277     1 O    8    2.062122    7.885861   12.945359      6.00      15.9994
     278     2 H    1    2.515719    7.360002   12.181476      1.00       1.0079
     279     2 H    1    1.453895    7.158219   13.325873      1.00       1.0079
     280     1 O    8    8.047542   15.301712    0.995440      6.00      15.9994
     281     2 H    1    8.581181   14.890102    0.321696      1.00       1.0079
     282     2 H    1    8.690722   15.683740    1.654703      1.00       1.0079
     283     1 O    8    5.536500    8.441218    5.584274      6.00      15.9994
     284     2 H    1    5.159220    9.313331    5.760431      1.00       1.0079
     285     2 H    1    6.483139    8.674643    5.437642      1.00       1.0079
     286     1 O    8   14.153124    3.796547   12.497393      6.00      15.9994
     287     2 H    1   13.840748    2.961721   12.934287      1.00       1.0079
     288     2 H    1   14.668742    3.444817   11.796755      1.00       1.0079
     289     1 O    8   10.161928    0.800531    2.233537      6.00      15.9994
     290     2 H    1   10.827582    1.342957    1.800084      1.00       1.0079
     291     2 H    1   10.514444   -0.104725    2.181259      1.00       1.0079
     292     1 O    8    4.247881    7.915016    9.082924      6.00      15.9994
     293     2 H    1    4.200443    7.211631    8.365512      1.00       1.0079
     294     2 H    1    4.898590    8.631726    8.970917      1.00       1.0079
     295     1 O    8    2.118889    6.804684    5.034723      6.00      15.9994
     296     2 H    1    1.258478    6.886504    5.501470      1.00       1.0079
     297     2 H    1    2.858415    7.064791    5.685756      1.00       1.0079
     298     1 O    8    4.787547   14.515281    8.285885      6.00      15.9994
     299     2 H    1    4.912427   15.029136    7.449140      1.00       1.0079
     300     2 H    1    5.538767   14.815255    8.889866      1.00       1.0079
     301     1 O    8   14.655344    0.814759    6.655063      6.00      15.9994
     302     2 H    1   13.685238    1.020531    6.622453      1.00       1.0079
     303     2 H    1   14.861826    0.145082    5.952360      1.00       1.0079
     304     1 O    8    5.992771   10.288331    9.723725      6.00      15.9994
     305     2 H    1    5.144624   10.453836   10.223113      1.00       1.0079
     306     2 H    1    5.687533   10.652514    8.886763      1.00       1.0079
     307     1 O    8   13.334488   14.068985   12.808410      6.00      15.9994
     308     2 H    1   13.608727   13.482476   13.540443      1.00       1.0079
     309     2 H    1   14.132136   14.072950   12.195611      1.00       1.0079
     310     1 O    8    4.632002    1.506885    5.692680      6.00      15.9994
     311     2 H    1    4.092034    1.200179    4.879335      1.00       1.0079
     312     2 H    1    5.501993    0.935190    5.606987      1.00       1.0079
     313     1 O    8    6.842908   15.466581    5.733396      6.00      15.9994
     314     2 H    1    7.329770   16.362803    5.649799      1.00       1.0079
     315     2 H    1    6.712733   15.072543    4.845277      1.00       1.0079
     316     1 O    8   12.423837    1.605833    9.855564      6.00      15.9994
     317     2 H    1   12.987392    0.880478    9.479159      1.00       1.0079
     318     2 H    1   11.487613    1.533915    9.567849      1.00       1.0079
     319     1 O    8    6.808776   12.548959   11.751564      6.00      15.9994
     320     2 H    1    6.678259   11.678485   11.316467      1.00       1.0079
     321     2 H    1    6.195601   13.309326   11.398867      1.00       1.0079
     322     1 O    8    6.660539    6.963184    1.408534      6.00      15.9994
     323     2 H    1    7.430080    7.029604    1.971794      1.00       1.0079
     324     2 H    1    6.143322    7.771679    1.663365      1.00       1.0079
     325     1 O    8   10.419598   13.637009    2.280870      6.00      15.9994
     326     2 H    1   10.908689   13.152198    2.998358      1.00       1.0079
     327     2 H    1    9.756912   13.008736    1.917348      1.00       1.0079
     328     1 O    8    4.115405    3.380312    7.961398      6.00      15.9994
     329     2 H    1    3.274584    3.871880    7.992947      1.00       1.0079
     330     2 H    1    3.987168    2.610502    7.312898      1.00       1.0079
     331     1 O    8   10.729852    9.507957    4.787775      6.00      15.9994
     332     2 H    1   11.121536   10.422328    4.659138      1.00       1.0079
     333     2 H    1   11.526681    8.952263    5.045099      1.00       1.0079
     334     1 O    8   11.808650    1.449349    6.660698      6.00      15.9994
     335     2 H    1   10.922065    1.330141    7.124108      1.00       1.0079
     336     2 H    1   11.742764    0.885687    5.884854      1.00       1.0079
     337     1 O    8    1.695151   13.281399   12.122426      6.00      15.9994
     338     2 H    1    1.951775   12.374055   12.415019      1.00       1.0079
     339     2 H    1    2.258862   13.580553   11.344539      1.00       1.0079
     340     1 O    8    5.377403    0.710078    2.138597      6.00      15.9994
     341     2 H    1    6.189881    0.502003    1.707873      1.00       1.0079
     342     2 H    1    5.119003    1.493024    1.660709      1.00       1.0079
     343     1 O    8   11.298536   13.302088   10.828750      6.00      15.9994
     344     2 H    1   10.355413   13.613186   10.949350      1.00       1.0079
     345     2 H    1   11.940001   13.879185   11.400091      1.00       1.0079
     346     1 O    8    0.319245   12.459580    7.366409      6.00      15.9994
     347     2 H    1    0.246356   11.485316    7.424726      1.00       1.0079
     348     2 H    1   -0.563436   12.892656    7.473919      1.00       1.0079
     349     1 O    8    4.676156    7.577055   13.845660      6.00      15.9994
     350     2 H    1    3.682966    7.538229   13.642283      1.00       1.0079
     351     2 H    1    5.055170    6.800267   13.342217      1.00       1.0079
     352     1 O    8    0.423090    0.736720    9.301047      6.00      15.9994
     353     2 H    1    0.032360    0.916936    8.403383      1.00       1.0079
     354     2 H    1    1.399094    0.559400    9.347676      1.00       1.0079
     355     1 O    8   14.865910    7.864138    1.933530      6.00      15.9994
     356     2 H    1   15.174866    8.571563    2.589635      1.00       1.0079
     357     2 H    1   14.039529    8.222266    1.495522      1.00       1.0079
     358     1 O    8    4.069335   11.431078   11.260664      6.00      15.9994
     359     2 H    1    4.181218   12.364369   10.982884      1.00       1.0079
     360     2 H    1    4.375119   11.277922   12.212666      1.00       1.0079
     361     1 O    8    3.657370    3.024817   15.358025      6.00      15.9994
     362     2 H    1    3.032865    2.517003   15.951921      1.00       1.0079
     363     2 H    1    3.032566    3.317248   14.632029      1.00       1.0079
     364     1 O    8   12.058964   14.758689    5.322184      6.00      15.9994
     365     2 H    1   12.351148   14.495752    6.201341      1.00       1.0079
     366     2 H    1   11.102491   14.604186    5.291018      1.00       1.0079
     367     1 O    8    4.881599   12.301070   15.096650      6.00      15.9994
     368     2 H    1    4.607362   13.130400   14.594780      1.00       1.0079
     369     2 H    1    4.772914   11.574153   14.465507      1.00       1.0079
     370     1 O    8   13.147344   13.369843    7.771386      6.00      15.9994
     371     2 H    1   12.371684   12.785707    7.915114      1.00       1.0079
     372     2 H    1   13.418465   13.683217    8.720500      1.00       1.0079
     373     1 O    8    1.908789   14.522416   14.514641      6.00      15.9994
     374     2 H    1    1.691287   13.882925   15.166473      1.00       1.0079
     375     2 H    1    1.923695   14.009117   13.678542      1.00       1.0079



 PW_GRID: Information for grid number                                          1
 PW_GRID: Grid distributed over                                   128 processors
 PW_GRID: Real space group dimensions                                   128    1
 PW_GRID: the grid is blocked:                                                NO
 PW_GRID: Cutoff [a.u.]                                                    500.0
 PW_GRID: spherical cutoff:                                                   NO
 PW_GRID:   Bounds   1           -150     149                Points:         300
 PW_GRID:   Bounds   2           -150     149                Points:         300
 PW_GRID:   Bounds   3           -150     149                Points:         300
 PW_GRID: Volume element (a.u.^3)  0.9372E-03     Volume (a.u.^3)     25303.9229
 PW_GRID: Grid span                                                    FULLSPACE
 PW_GRID:   Distribution                         Average         Max         Min
 PW_GRID:   G-Vectors                           210937.5      211200      210900
 PW_GRID:   G-Rays                                 703.1         704         703
 PW_GRID:   Real Space Points                   210937.5      270000      180000

 PW_GRID: Information for grid number                                          2
 PW_GRID: Grid distributed over                                   128 processors
 PW_GRID: Real space group dimensions                                   128    1
 PW_GRID: the grid is blocked:                                                NO
 PW_GRID: Cutoff [a.u.]                                                    166.7
 PW_GRID: spherical cutoff:                                                   NO
 PW_GRID:   Bounds   1            -90      89                Points:         180
 PW_GRID:   Bounds   2            -90      89                Points:         180
 PW_GRID:   Bounds   3            -90      89                Points:         180
 PW_GRID: Volume element (a.u.^3)  0.4339E-02     Volume (a.u.^3)     25303.9229
 PW_GRID: Grid span                                                    FULLSPACE
 PW_GRID:   Distribution                         Average         Max         Min
 PW_GRID:   G-Vectors                            45562.5       45720       45360
 PW_GRID:   G-Rays                                 253.1         254         252
 PW_GRID:   Real Space Points                    45562.5       64800       32400

 PW_GRID: Information for grid number                                          3
 PW_GRID: Grid distributed over                                   128 processors
 PW_GRID: Real space group dimensions                                     8   16
 PW_GRID: the grid is blocked:                                                NO
 PW_GRID: Cutoff [a.u.]                                                     55.6
 PW_GRID: spherical cutoff:                                                   NO
 PW_GRID:   Bounds   1            -50      49                Points:         100
 PW_GRID:   Bounds   2            -50      49                Points:         100
 PW_GRID:   Bounds   3            -50      49                Points:         100
 PW_GRID: Volume element (a.u.^3)  0.2530E-01     Volume (a.u.^3)     25303.9229
 PW_GRID: Grid span                                                    FULLSPACE
 PW_GRID:   Distribution                         Average         Max         Min
 PW_GRID:   G-Vectors                             7812.5        7900        7700
 PW_GRID:   G-Rays                                  78.1          79          77
 PW_GRID:   Real Space Points                     7812.5        9100        7200

 PW_GRID: Information for grid number                                          4
 PW_GRID: Grid distributed over                                   128 processors
 PW_GRID: Real space group dimensions                                     8   16
 PW_GRID: the grid is blocked:                                                NO
 PW_GRID: Cutoff [a.u.]                                                     18.5
 PW_GRID: spherical cutoff:                                                   NO
 PW_GRID:   Bounds   1            -30      29                Points:          60
 PW_GRID:   Bounds   2            -30      29                Points:          60
 PW_GRID:   Bounds   3            -30      29                Points:          60
 PW_GRID: Volume element (a.u.^3)  0.1171         Volume (a.u.^3)     25303.9229
 PW_GRID: Grid span                                                    FULLSPACE
 PW_GRID:   Distribution                         Average         Max         Min
 PW_GRID:   G-Vectors                             1687.5        1740        1620
 PW_GRID:   G-Rays                                  28.1          29          27
 PW_GRID:   Real Space Points                     1687.5        1920        1260

 PW_GRID: Information for grid number                                          5
 PW_GRID: Grid distributed over                                   128 processors
 PW_GRID: Real space group dimensions                                     8   16
 PW_GRID: the grid is blocked:                                                NO
 PW_GRID: Cutoff [a.u.]                                                      6.2
 PW_GRID: spherical cutoff:                                                   NO
 PW_GRID:   Bounds   1            -18      17                Points:          36
 PW_GRID:   Bounds   2            -18      17                Points:          36
 PW_GRID:   Bounds   3            -18      17                Points:          36
 PW_GRID: Volume element (a.u.^3)  0.5424         Volume (a.u.^3)     25303.9229
 PW_GRID: Grid span                                                    FULLSPACE
 PW_GRID:   Distribution                         Average         Max         Min
 PW_GRID:   G-Vectors                              364.5         396         324
 PW_GRID:   G-Rays                                  10.1          11           9
 PW_GRID:   Real Space Points                      364.5         540         288

 RS_GRID: Information for grid number                                          1
 RS_GRID:   Bounds   1           -150     149                Points:         300
 RS_GRID:   Bounds   2           -150     149                Points:         300
 RS_GRID:   Bounds   3           -150     149                Points:         300
 RS_GRID: Real space distribution over                                  4 groups
 RS_GRID: Real space distribution along direction                              1
 RS_GRID: Border size                                                         20
 RS_GRID: Real space distribution over                                  4 groups
 RS_GRID: Real space distribution along direction                              2
 RS_GRID: Border size                                                         20
 RS_GRID: Real space distribution over                                  8 groups
 RS_GRID: Real space distribution along direction                              3
 RS_GRID: Border size                                                         20
 RS_GRID:   Distribution                         Average         Max         Min
 RS_GRID:   Planes                                 115.0         115         115
 RS_GRID:   Distribution                         Average         Max         Min
 RS_GRID:   Planes                                 115.0         115         115
 RS_GRID:   Distribution                         Average         Max         Min
 RS_GRID:   Planes                                  77.5          78          77

 RS_GRID: Information for grid number                                          2
 RS_GRID:   Bounds   1            -90      89                Points:         180
 RS_GRID:   Bounds   2            -90      89                Points:         180
 RS_GRID:   Bounds   3            -90      89                Points:         180
 RS_GRID: Real space distribution over                                  4 groups
 RS_GRID: Real space distribution along direction                              1
 RS_GRID: Border size                                                         18
 RS_GRID: Real space distribution over                                  4 groups
 RS_GRID: Real space distribution along direction                              2
 RS_GRID: Border size                                                         18
 RS_GRID: Real space distribution over                                  8 groups
 RS_GRID: Real space distribution along direction                              3
 RS_GRID: Border size                                                         18
 RS_GRID:   Distribution                         Average         Max         Min
 RS_GRID:   Planes                                  81.0          81          81
 RS_GRID:   Distribution                         Average         Max         Min
 RS_GRID:   Planes                                  81.0          81          81
 RS_GRID:   Distribution                         Average         Max         Min
 RS_GRID:   Planes                                  58.5          59          58

 RS_GRID: Information for grid number                                          3
 RS_GRID:   Bounds   1            -50      49                Points:         100
 RS_GRID:   Bounds   2            -50      49                Points:         100
 RS_GRID:   Bounds   3            -50      49                Points:         100
 RS_GRID: Real space fully replicated
 RS_GRID: Group size                                                           1

 RS_GRID: Information for grid number                                          4
 RS_GRID:   Bounds   1            -30      29                Points:          60
 RS_GRID:   Bounds   2            -30      29                Points:          60
 RS_GRID:   Bounds   3            -30      29                Points:          60
 RS_GRID: Real space fully replicated
 RS_GRID: Group size                                                           1

 RS_GRID: Information for grid number                                          5
 RS_GRID:   Bounds   1            -18      17                Points:          36
 RS_GRID:   Bounds   2            -18      17                Points:          36
[...]
 VAR1: |Q.X|:   0.15872513995964455     
 VAR1: |T0+Q.X|:   0.94802509010689817     

     Hotelling iter   1 1.00000000   0.982E+00       0.012      196.199
     Hotelling iter   2 1.00000000   0.345E+00       0.012      196.402
     Hotelling iter   3 1.00000000   0.813E-01       0.011      199.390
     Hotelling iter   4 1.00000000   0.765E-02       0.012      194.003
     Hotelling iter   5 1.00000000   0.972E-04       0.012      197.268
     Hotelling iter   6 1.00000000   0.220E-07       0.012      194.641
     Hotelling iter   7 1.00000000   0.230E-14       0.012      195.631
 Maximum norm of dE/dT:   8.34901199540786327E-004
 Grad orthogonality error:   4.28492303240768572E-005
 Step orthogonality error:   7.82171128739459756E-005
 ALMO SCF LS    12   -362.715931496279   0.000E+00   0.838E-03   0.140E+00    -0.23197     1.145
 VAR1: |B*X|:   0.15879963069472780     
 VAR1: |Q.X|:   0.15879963069472780     
 VAR1: |T0+Q.X|:   0.94804485241471570     

     Hotelling iter   1 1.00000000   0.981E+00       0.011      199.391
     Hotelling iter   2 1.00000000   0.345E+00       0.012      195.162
     Hotelling iter   3 1.00000000   0.812E-01       0.012      196.915
     Hotelling iter   4 1.00000000   0.765E-02       0.012      189.403
     Hotelling iter   5 1.00000000   0.971E-04       0.012      192.633
     Hotelling iter   6 1.00000000   0.220E-07       0.012      192.508
     Hotelling iter   7 1.00000000   0.229E-14       0.012      193.365
 Maximum norm of dE/dT:   5.09666734029773794E-004
 Grad orthogonality error:   3.04779610233385819E-005
 ....updating step direction....
 ....applying preconditioner....
 ....special case 1....
 Dir orthogonality error:   1.01014804286137028E-005
 ....final beta....  0.14461427690991147     
 Step orthogonality error:   1.94266955994164189E-005
 ALMO SCF CG    13   -362.715938640190  -0.882E-04   0.511E-03   0.111E-04     0.85598     1.453
 VAR1: |B*X|:   0.15892452226993120     
 VAR1: |Q.X|:   0.15892452226993120     
 VAR1: |T0+Q.X|:   0.94802513212136474     

     Hotelling iter   1 1.00000000   0.982E+00       0.016      145.911
     Hotelling iter   2 1.00000000   0.345E+00       0.012      191.022
     Hotelling iter   3 1.00000000   0.813E-01       0.011      197.826
     Hotelling iter   4 1.00000000   0.765E-02       0.012      194.602
     Hotelling iter   5 1.00000000   0.972E-04       0.012      191.902
     Hotelling iter   6 1.00000000   0.220E-07       0.012      190.275
     Hotelling iter   7 1.00000000   0.232E-14       0.012      183.952
 Maximum norm of dE/dT:   3.11509455192936907E-004
 Grad orthogonality error:   1.70375504876190809E-005
 ....updating step direction....
 ....applying preconditioner....
 ....special case 1....
 Dir orthogonality error:   5.26541338280426886E-006
 ....final beta....  0.22776088532537955     
 Step orthogonality error:   8.56366948720880190E-006
 ALMO SCF CG    14   -362.715951942380  -0.133E-04   0.313E-03   0.277E-02     0.89878     1.455
 VAR1: |B*X|:   0.15881460589097499     
 VAR1: |Q.X|:   0.15881460589097499     
 VAR1: |T0+Q.X|:   0.94802125579307384     

     Hotelling iter   1 1.00000000   0.982E+00       0.012      195.466
     Hotelling iter   2 1.00000000   0.345E+00       0.012      195.548
     Hotelling iter   3 1.00000000   0.813E-01       0.012      195.150
     Hotelling iter   4 1.00000000   0.766E-02       0.012      195.121
     Hotelling iter   5 1.00000000   0.972E-04       0.012      195.502
     Hotelling iter   6 1.00000000   0.220E-07       0.012      194.892
     Hotelling iter   7 1.00000000   0.240E-14       0.012      196.140
 Maximum norm of dE/dT:   1.10575422821557678E-004
 Grad orthogonality error:   5.59951092781665481E-006
 Step orthogonality error:   8.59876699061246544E-006
 ALMO SCF LS    15   -362.715955190877   0.000E+00   0.111E-03  -0.251E-01     0.04724     1.145
 VAR1: |B*X|:   0.15880882873644364     
 VAR1: |Q.X|:   0.15880882873644364     
 VAR1: |T0+Q.X|:   0.94802105205503440     

     Hotelling iter   1 1.00000000   0.982E+00       0.012      194.443
     Hotelling iter   2 1.00000000   0.345E+00       0.011      197.616
     Hotelling iter   3 1.00000000   0.813E-01       0.011      200.398
     Hotelling iter   4 1.00000000   0.766E-02       0.012      192.746
     Hotelling iter   5 1.00000000   0.972E-04       0.013      171.243
     Hotelling iter   6 1.00000000   0.220E-07       0.013      175.939
     Hotelling iter   7 1.00000000   0.236E-14       0.012      192.177
 Maximum norm of dE/dT:   1.28002683897748219E-004
 Grad orthogonality error:   5.28763014767313727E-006
 ....updating step direction....
 ....applying preconditioner....
 ....special case 1....
 Dir orthogonality error:   2.41295173582032299E-006
 ....final beta....  0.20303875164442917     
 Step orthogonality error:   4.01742814174524857E-006
 ALMO SCF CG    16   -362.715955198997  -0.326E-05   0.128E-03  -0.129E-06     0.99332     1.447
 VAR1: |B*X|:   0.15882463736263297     
 VAR1: |Q.X|:   0.15882463736263297     
 VAR1: |T0+Q.X|:   0.94802276397511154     

     Hotelling iter   1 1.00000000   0.982E+00       0.012      189.018
     Hotelling iter   2 1.00000000   0.345E+00       0.012      192.900
     Hotelling iter   3 1.00000000   0.813E-01       0.012      196.538
     Hotelling iter   4 1.00000000   0.766E-02       0.011      197.817
     Hotelling iter   5 1.00000000   0.972E-04       0.012      197.091
     Hotelling iter   6 1.00000000   0.220E-07       0.012      195.283
     Hotelling iter   7 1.00000000   0.233E-14       0.012      197.155
 Maximum norm of dE/dT:   8.05388825319969248E-005
 Grad orthogonality error:   2.13171261121519292E-006
 Step orthogonality error:   4.01701678302341393E-006
 ALMO SCF LS    17   -362.715955821812   0.000E+00   0.807E-04   0.666E-01    -0.12379     1.144
 VAR1: |B*X|:   0.15882266724206801     
 VAR1: |Q.X|:   0.15882266724206801     
 VAR1: |T0+Q.X|:   0.94802255063026364     

     Hotelling iter   1 1.00000000   0.982E+00       0.012      187.143
     Hotelling iter   2 1.00000000   0.345E+00       0.012      188.507
     Hotelling iter   3 1.00000000   0.813E-01       0.012      193.250
     Hotelling iter   4 1.00000000   0.766E-02       0.012      196.225
     Hotelling iter   5 1.00000000   0.972E-04       0.012      195.320
     Hotelling iter   6 1.00000000   0.220E-07       0.014      165.371
     Hotelling iter   7 1.00000000   0.230E-14       0.012      195.838
 Maximum norm of dE/dT:   5.61284164253619822E-005
 Grad orthogonality error:   2.52492795885876112E-006
 ....updating step direction....
 ....applying preconditioner....
 ....special case 1....
 Dir orthogonality error:   1.16290467312390020E-006
 ....final beta....  0.16801121768411925     
 Step orthogonality error:   1.83781716736099773E-006
 ALMO SCF CG    18   -362.715955834697  -0.636E-06   0.562E-04   0.152E-07     0.91301     1.448
 VAR1: |B*X|:   0.15880911283884200     
 VAR1: |Q.X|:   0.15880911283884200     
 VAR1: |T0+Q.X|:   0.94802330543620250     

     Hotelling iter   1 1.00000000   0.982E+00       0.012      193.026
     Hotelling iter   2 1.00000000   0.345E+00       0.011      198.035
     Hotelling iter   3 1.00000000   0.813E-01       0.012      196.831
     Hotelling iter   4 1.00000000   0.766E-02       0.015      148.370
     Hotelling iter   5 1.00000000   0.972E-04       0.013      177.284
     Hotelling iter   6 1.00000000   0.220E-07       0.012      190.741
     Hotelling iter   7 1.00000000   0.228E-14       0.012      192.905
 Maximum norm of dE/dT:   3.05382356417817878E-005
 Grad orthogonality error:   1.26415805097563984E-006
 Step orthogonality error:   1.83722190626182531E-006
 ALMO SCF LS    19   -362.715955948231   0.000E+00   0.306E-04  -0.872E-02     0.01803     1.149
 VAR1: |B*X|:   0.15880884513576410     
 VAR1: |Q.X|:   0.15880884513576410     
 VAR1: |T0+Q.X|:   0.94802332034382109     

     Hotelling iter   1 1.00000000   0.982E+00       0.012      181.831
     Hotelling iter   2 1.00000000   0.345E+00       0.013      174.766
     Hotelling iter   3 1.00000000   0.813E-01       0.012      196.185
     Hotelling iter   4 1.00000000   0.766E-02       0.012      195.413
     Hotelling iter   5 1.00000000   0.972E-04       0.012      195.987
     Hotelling iter   6 1.00000000   0.220E-07       0.012      187.499
     Hotelling iter   7 1.00000000   0.228E-14       0.013      180.869
 Maximum norm of dE/dT:   3.21540085166111943E-005
 Grad orthogonality error:   1.23926641935186573E-006
 ....updating step direction....
 ....applying preconditioner....
 ....special case 1....
 Dir orthogonality error:   5.66638331651192714E-007
 ....final beta....  0.22608389246511601     
 Step orthogonality error:   9.82001953570969738E-007
 ALMO SCF CG    20   -362.715955948274  -0.114E-06   0.322E-04  -0.296E-08     0.97759     1.449
 VAR1: |B*X|:   0.15881200236885934     
 VAR1: |Q.X|:   0.15881200236885934     
 VAR1: |T0+Q.X|:   0.94802336497304951     

     Hotelling iter   1 1.00000000   0.982E+00       0.012      195.024
     Hotelling iter   2 1.00000000   0.345E+00       0.012      195.585
     Hotelling iter   3 1.00000000   0.813E-01       0.011      201.287
     Hotelling iter   4 1.00000000   0.766E-02       0.012      195.440
     Hotelling iter   5 1.00000000   0.972E-04       0.012      195.469
     Hotelling iter   6 1.00000000   0.220E-07       0.012      196.589
     Hotelling iter   7 1.00000000   0.231E-14       0.011      197.648
 Maximum norm of dE/dT:   2.04353309366967374E-005
 Grad orthogonality error:   5.33787854056127330E-007
 ....updating step direction....
 ....applying preconditioner....
 ....special case 1....
 Dir orthogonality error:   2.39579222862881743E-007
 ....final beta....  0.25265140162277716     
 Step orthogonality error:   4.87614697024459084E-007
 ALMO SCF CG    21   -362.715955975237  -0.270E-07   0.204E-04  -0.270E-04     1.02647     1.444
 VAR1: |B*X|:   0.15881494577708571     
 VAR1: |Q.X|:   0.15881494577708571     
 VAR1: |T0+Q.X|:   0.94802347844474399     

     Hotelling iter   1 1.00000000   0.982E+00       0.012      196.371
     Hotelling iter   2 1.00000000   0.345E+00       0.012      195.924
     Hotelling iter   3 1.00000000   0.813E-01       0.011      198.521
     Hotelling iter   4 1.00000000   0.766E-02       0.011      197.844
     Hotelling iter   5 1.00000000   0.972E-04       0.012      196.646
     Hotelling iter   6 1.00000000   0.220E-07       0.012      182.940
     Hotelling iter   7 1.00000000   0.237E-14       0.012      193.958
 Maximum norm of dE/dT:   1.29576596600033435E-005
 Grad orthogonality error:   2.09819603128558027E-007
 Step orthogonality error:   4.87536287079835517E-007
 ALMO SCF LS    22   -362.715955981302   0.000E+00   0.129E-04   0.662E-01    -0.13567     1.145
 VAR1: |B*X|:   0.15881455672946801     
 VAR1: |Q.X|:   0.15881455672946801     
 VAR1: |T0+Q.X|:   0.94802346344652122     

     Hotelling iter   1 1.00000000   0.982E+00       0.012      196.159
     Hotelling iter   2 1.00000000   0.345E+00       0.012      194.069
     Hotelling iter   3 1.00000000   0.813E-01       0.011      198.089
     Hotelling iter   4 1.00000000   0.766E-02       0.012      195.684
     Hotelling iter   5 1.00000000   0.972E-04       0.013      181.251
     Hotelling iter   6 1.00000000   0.220E-07       0.012      182.116
     Hotelling iter   7 1.00000000   0.225E-14       0.012      187.647
 Maximum norm of dE/dT:   8.54390882804381691E-006
 Grad orthogonality error:   2.07624492093636202E-007
 ALMO SCF LS    23   -362.715955981446   0.000E+00   0.853E-05   0.662E-01    -0.13567     0.982
 _ENERGY-0:   -2151.4313576641271     
 _ENERGY-D:   -1.4802645649791231     
 _ENERGY-F:   -2152.9116222291063     

 DECOMPOSITION OF THE DELOCALIZATION ENERGY

 ENERGY| Total FORCE_EVAL ( QS ) energy (a.u.):            -2151.431357708944233


 -------------------------------------------------------------------------------
 ----                             MULTIGRID INFO                            ----
 -------------------------------------------------------------------------------
 count for grid        1:        1664391          cutoff [a.u.]          500.00
 count for grid        2:        1514963          cutoff [a.u.]          166.67
 count for grid        3:        1403956          cutoff [a.u.]           55.56
 count for grid        4:        1380711          cutoff [a.u.]           18.52
 count for grid        5:        2634705          cutoff [a.u.]            6.17
 total gridlevel count  :        8598726

 -------------------------------------------------------------------------------
 -                                                                             -
 -                         MESSAGE PASSING PERFORMANCE                         -
 -                                                                             -
 -------------------------------------------------------------------------------

 ROUTINE             CALLS  TOT TIME [s]  AVE VOLUME [Bytes]  PERFORMANCE [MB/s]
 MP_Group                5         0.000
 MP_Bcast               50         0.011            4195123.            18432.43
 MP_Allreduce          213         1.089               7780.                1.52
 MP_Gather               4         0.005               3584.                2.69
 MP_Sync                 5         0.000
 MP_Alltoall           723        25.543            4266851.              120.78
 MP_ISendRecv        19812         0.056              30827.            10950.55
 MP_Wait             24222         6.103
 MP_ISend             3990         0.166             172551.             4138.80
 MP_IRecv             3990         0.226             172416.             3037.47
 -------------------------------------------------------------------------------


 -------------------------------------------------------------------------------
 -                                                                             -
 -                           R E F E R E N C E S                               -
 -                                                                             -
 -------------------------------------------------------------------------------
 
 CP2K version 2.2.268 (Development Version), the CP2K developers group (2011).
 CP2K is freely available from http://cp2k.berlios.de/ .

 VandeVondele, J; Hutter, J. 
 JOURNAL OF CHEMICAL PHYSICS, 127 (11), 114105 (2007). 
 Gaussian basis sets for accurate calculations on molecular systems in
 gas and condensed phases.
 http://dx.doi.org/10.1063/1.2770708


 Krack, M. 
 THEORETICAL CHEMISTRY ACCOUNTS, 114 (1-3), 145-152 (2005). 
 Pseudopotentials for H to Kr optimized for gradient-corrected
 exchange-correlation functionals.
 http://dx.doi.org/10.1007/s00214-005-0655-y


 VandeVondele, J; Krack, M; Mohamed, F; Parrinello, M; Chassaing, T;
 Hutter, J. COMPUTER PHYSICS COMMUNICATIONS, 167 (2), 103-128 (2005). 
 QUICKSTEP: Fast and accurate density functional calculations using a
 mixed Gaussian and plane waves approach.
 http://dx.doi.org/10.1016/j.cpc.2004.12.014


 Frigo, M; Johnson, SG. 
 PROCEEDINGS OF THE IEEE, 93 (2), 216-231 (2005). 
 The design and implementation of FFTW3.
 http://dx.doi.org/10.1109/JPROC.2004.840301


 Hartwigsen, C; Goedecker, S; Hutter, J. 
 PHYSICAL REVIEW B, 58 (7), 3641-3662 (1998). 
 Relativistic separable dual-space Gaussian pseudopotentials from H to Rn.
 http://dx.doi.org/10.1103/PhysRevB.58.3641


 Lippert, G; Hutter, J; Parrinello, M. 
 MOLECULAR PHYSICS, 92 (3), 477-487 (1997). 
 A hybrid Gaussian and plane wave density functional scheme.
 http://dx.doi.org/10.1080/002689797170220


 Goedecker, S; Teter, M; Hutter, J. 
 PHYSICAL REVIEW B, 54 (3), 1703-1710 (1996). 
 Separable dual-space Gaussian pseudopotentials.
 http://dx.doi.org/10.1103/PhysRevB.54.1703


 BECKE, AD. PHYSICAL REVIEW A, 38 (6), 3098-3100 (1988). 
 DENSITY-FUNCTIONAL EXCHANGE-ENERGY APPROXIMATION WITH CORRECT
 ASYMPTOTIC-BEHAVIOR.
 http://dx.doi.org/10.1103/PhysRevA.38.3098


 LEE, CT; YANG, WT; PARR, RG. 
 PHYSICAL REVIEW B, 37 (2), 785-789 (1988). 
 DEVELOPMENT OF THE COLLE-SALVETTI CORRELATION-ENERGY FORMULA INTO A
 FUNCTIONAL OF THE ELECTRON-DENSITY.
 http://dx.doi.org/10.1103/PhysRevB.37.785


 -------------------------------------------------------------------------------
 -                                                                             -
 -                                T I M I N G                                  -
 -                                                                             -
 -------------------------------------------------------------------------------
 SUBROUTINE                       CALLS  ASD         SELF TIME        TOTAL TIME
                                              AVERAGE  MAXIMUM  AVERAGE  MAXIMUM
 CP2K                                 1  1.0    0.032    0.040  337.920  337.975
 qs_energies_scf                      1  2.0    0.000    0.001  337.322  337.386
 almo_entry_scf                       1  3.0    0.000    0.000  333.121  333.184
 almo_scf_main                        1  4.0    0.000    0.000  275.878  275.958
 almo_scf_dm_to_ks                   25  6.0    0.000    0.000  270.540  270.805
 almo_scf_main_block_diagonal         1  5.0    0.000    0.001  240.082  240.157
 qs_ks_update_qs_env                 26  7.0    0.000    0.001  164.772  165.051
 qs_ks_build_kohn_sham_matrix        26  8.0    0.032    0.042  164.741  165.020
 sum_up_and_integrate                26  9.0    0.161    0.202  132.920  133.201
 integrate_v_rspace                  26 10.0  116.042  118.208  132.758  133.041
 qs_rho_update_rho                   26  7.0    0.000    0.000  115.247  115.271
 calculate_rho_elec                  26  8.0   95.337   97.911  115.247  115.271
 almo_scf_main_quenched_almos         2  5.0    0.034    0.048   81.464   81.490
 almo_post_scf                        1  4.0    0.001    0.001   45.709   45.729
 cp_dbcsr_multiply_d               1870  7.4    0.009    0.009   45.009   45.273
 fft_wrap_pw1pw2                    495 10.9    0.015    0.019   36.383   36.863
 fft_wrap_pw1pw2_500                287 11.9    2.160    2.591   34.522   34.974
 fft3d_ps                           495 12.9    9.800   11.931   30.519   31.189
 qs_vxc_create                       26  9.0    0.002    0.002   27.476   27.612
 xc_vxc_pw_create                    26 10.0    0.452    0.528   27.474   27.610
 cp_dbcsr_mult_NS_NR                272  7.7   24.683   25.432   24.690   25.438
 density_rs2pw                       26  9.0    0.638    0.878   14.995   17.435
 rs_pw_transfer                     261 10.9    0.008    0.026   12.353   14.826
 xc_rho_set_and_dset_create          26 11.0    1.724    2.194   14.029   14.794
 almo_scf_t_to_p                     49  6.4    0.001    0.001   13.280   13.580
 distribute_matrix                   52 10.0    9.585   12.342    9.791   12.412
 almo_scf_init                        1  4.0    0.000    0.000   11.534   11.549
 almo_scf_init_qs                     1  5.0    0.180    0.181   11.235   11.250
 x_to_yz                            182 14.1   10.904   11.244   10.904   11.244
 yz_to_x                            157 13.8    9.412   10.567    9.412   10.567
 potential_pw2rs                     26 11.0    0.017    0.019    9.810    9.845
 -------------------------------------------------------------------------------

  **** **** ******  **  PROGRAM ENDED AT                 2012-06-12 21:41:03.199
 ***** ** ***  *** **   PROGRAM RAN ON                                  nid00029
 **    ****   ******    PROGRAM RAN BY                                  root ;-)
 ***** **    ** ** **   PROGRAM PROCESS ID                                 19049
  **** **  *******  **  PROGRAM STOPPED IN /scratch/weisshorn/rustamr/e298-1.304
                                           388
Application 983395 resources: utime ~41844s, stime ~1481s
