
  **** **** ******  **  PROGRAM STARTED AT               2012-06-12 21:18:13.732
 ***** ** ***  *** **   PROGRAM STARTED ON                              nid00029
 **    ****   ******    PROGRAM STARTED BY                              root ;-)
 ***** **    ** ** **   PROGRAM PROCESS ID                                 18839
  **** **  *******  **  PROGRAM STARTED IN /scratch/weisshorn/rustamr/e298-1.304
                                           388

 CP2K| version string:                CP2K version 2.2.268 (Development Version)
 CP2K| is freely available from                          http://cp2k.berlios.de/
 CP2K| Program compiled at                         Sun May 27 15:14:38 CEST 2012
 CP2K| Program compiled on                                                 rosa5
 CP2K| Program compiled for                                    rosa-new-gfortran
 CP2K| Last CVS entry                xas_tp_scf.F/1.101/Wed Jun 29 13:43:33 2011
 CP2K| Input file name                                           bulk.090002.inp

 GLOBAL| Force Environment number                                              1
 GLOBAL| Basis set file name            /users/rustamr/dev/cp2k/tests/QS/BASIS_M
 GLOBAL| Geminal file name                                         BASIS_GEMINAL
 GLOBAL| Potential file name            /users/rustamr/dev/cp2k/tests/QS/GTH_POT
 GLOBAL| MM Potential file name                                     MM_POTENTIAL
 GLOBAL| Coordinate file name                                      __STD_INPUT__
 GLOBAL| Method name                                                        CP2K
 GLOBAL| Project name                                                       bulk
 GLOBAL| Preferred FFT library                                             FFTW3
 GLOBAL| Run type                                                         ENERGY
 GLOBAL| All-to-all communication in single precision                          F
 GLOBAL| FFTs using library dependent lengths                                  F
 GLOBAL| Global print level                                               MEDIUM
 GLOBAL| Total number of message passing processes                           128
 GLOBAL| Number of threads for this process                                    1
 GLOBAL| This output is from process                                           0

 MEMORY| system memory details [Kb]
 MEMORY|                        rank 0           min           max       average
 MEMORY| MemTotal             33082792      33082792      33082792      33082792
 MEMORY| MemFree              30722952      30717372      30727324      30723291
 MEMORY| Buffers                     0             0             0             0
 MEMORY| Cached                 110104        108756        110104        109233
 MEMORY| Slab                   192152        190652        192152        191192
 MEMORY| SReclaimable             4652          4308          4652          4501
 MEMORY| MemLikelyFree        30837708      30832128      30840668      30837026

 DBCSR| Multiplication driver                                                SMM
 DBCSR| Multiplication stack size                                           1000
 DBCSR| Use subcommunicators                                                   F
 DBCSR| Use MPI combined types                                                 F
 DBCSR| Use MPI memory allocation                                              T


 *** Fundamental physical constants (SI units) ***

 *** Literature: B. J. Mohr and B. N. Taylor,
 ***             CODATA recommended values of the fundamental physical
 ***             constants: 2006, Web Version 5.1
 ***             http://physics.nist.gov/constants

 Speed of light in vacuum [m/s]                             2.99792458000000E+08
 Magnetic constant or permeability of vacuum [N/A**2]       1.25663706143592E-06
 Electric constant or permittivity of vacuum [F/m]          8.85418781762039E-12
 Planck constant (h) [J*s]                                  6.62606896000000E-34
 Planck constant (h-bar) [J*s]                              1.05457162825177E-34
 Elementary charge [C]                                      1.60217648700000E-19
 Electron mass [kg]                                         9.10938215000000E-31
 Electron g factor [ ]                                     -2.00231930436220E+00
 Proton mass [kg]                                           1.67262163700000E-27
 Fine-structure constant                                    7.29735253760000E-03
 Rydberg constant [1/m]                                     1.09737315685270E+07
 Avogrado constant [1/mol]                                  6.02214179000000E+23
 Boltzmann constant [J/K]                                   1.38065040000000E-23
 Atomic mass unit [kg]                                      1.66053878200000E-27
 Bohr radius [m]                                            5.29177208590000E-11

 *** Conversion factors ***

 [u] -> [a.u.]                                              1.82288848426455E+03
 [Angstrom] -> [Bohr] = [a.u.]                              1.88972613288564E+00
 [a.u.] = [Bohr] -> [Angstrom]                              5.29177208590000E-01
 [a.u.] -> [s]                                              2.41888432650478E-17
 [a.u.] -> [fs]                                             2.41888432650478E-02
 [a.u.] -> [J]                                              4.35974393937059E-18
 [a.u.] -> [K]                                              3.15774647902944E+05
 [a.u.] -> [kJ/mol]                                         2.62549961709828E+03
 [a.u.] -> [kcal/mol]                                       6.27509468713739E+02
 [a.u.] -> [Pa]                                             2.94210107994716E+13
 [a.u.] -> [bar]                                            2.94210107994716E+08
 [a.u.] -> [atm]                                            2.90362800883016E+08
 [a.u.] -> [eV]                                             2.72113838565563E+01
 [a.u.] -> [Hz]                                             6.57968392072181E+15
 [a.u.] -> [1/cm] (wave numbers)                            2.19474631370540E+05
 [a.u./Bohr**2] -> [1/cm]                                   5.14048714338585E+03
 

 CELL| Volume [angstrom^3]:                                             3749.654
 CELL| Vector a [angstrom]:      15.536     0.000     0.000    |a| =      15.536
 CELL| Vector b [angstrom]:       0.000    15.536     0.000    |b| =      15.536
 CELL| Vector c [angstrom]:       0.000     0.000    15.536    |c| =      15.536
 CELL| Angle (b,c), alpha [degree]:                                       90.000
 CELL| Angle (a,c), beta  [degree]:                                       90.000
 CELL| Angle (a,b), gamma [degree]:                                       90.000

 CELL_REF| Volume [angstrom^3]:                                         3749.654
 CELL_REF| Vector a [angstrom    15.536     0.000     0.000    |a| =      15.536
 CELL_REF| Vector b [angstrom     0.000    15.536     0.000    |b| =      15.536
 CELL_REF| Vector c [angstrom     0.000     0.000    15.536    |c| =      15.536
 CELL_REF| Angle (b,c), alpha [degree]:                                   90.000
 CELL_REF| Angle (a,c), beta  [degree]:                                   90.000
 CELL_REF| Angle (a,b), gamma [degree]:                                   90.000

 CELL_TOP| Volume [angstrom^3]:                                         3749.654
 CELL_TOP| Vector a [angstrom    15.536     0.000     0.000    |a| =      15.536
 CELL_TOP| Vector b [angstrom     0.000    15.536     0.000    |b| =      15.536
 CELL_TOP| Vector c [angstrom     0.000     0.000    15.536    |c| =      15.536
 CELL_TOP| Angle (b,c), alpha [degree]:                                   90.000
 CELL_TOP| Angle (a,c), beta  [degree]:                                   90.000
 CELL_TOP| Angle (a,b), gamma [degree]:                                   90.000

 GENERATE|  Preliminary Number of Bonds generated:                           250
 GENERATE|  Achieved consistency in connectivity generation.
 GENERATE|  Number of Bonds generated:                                       250
 REORDER |  
 REORDER |  Reordering Molecules. The Reordering of molecules will override all
 REORDER |  information regarding molecule names and residue names.
 REORDER |  New ones will be provided on the basis of the connectivity!
 REORDER |  Number of unique molecules found:      1.
 REORDER |  

 GENERATE|  Preliminary Number of Bonds generated:                           250
 GENERATE|  Achieved consistency in connectivity generation.
 GENERATE|  Number of Bonds generated:                                       250
 GENERATE|  Preliminary Number of Bends generated:                           125
 GENERATE|  Number of Bends generated:                                       125
 GENERATE|  Number of UB generated:                                          125
 GENERATE|  Preliminary Number of Torsions generated:                          0
 GENERATE|  Number of Torsions generated:                                      0
 GENERATE|  Number of Impropers generated:                                     0
 GENERATE|  Number of 1-4 interactions generated:                              0

 *******************************************************************************
 *******************************************************************************
 **                                                                           **
 **     #####                         ##              ##                      **
 **    ##   ##            ##          ##              ##                      **
 **   ##     ##                       ##            ######                    **
 **   ##     ##  ##   ##  ##   #####  ##  ##   ####   ##    #####    #####    **
 **   ##     ##  ##   ##  ##  ##      ## ##   ##      ##   ##   ##  ##   ##   **
 **   ##  ## ##  ##   ##  ##  ##      ####     ###    ##   ######   ######    **
 **    ##  ###   ##   ##  ##  ##      ## ##      ##   ##   ##       ##        **
 **     #######   #####   ##   #####  ##  ##  ####    ##    #####   ##        **
 **           ##                                                    ##        **
 **                                                                           **
 **                                                ... make the atoms dance   **
 **                                                                           **
 **            Copyright (C) by CP2K Developers Group (2000 - 2011)           **
 **                                                                           **
 *******************************************************************************

 DFT| Spin restricted Kohn-Sham (RKS) calculation                            RKS
 DFT| Multiplicity                                                             1
 DFT| Number of spin states                                                    1
 DFT| Charge                                                                   0
 DFT| Self-interaction correction (SIC)                                       NO
 DFT| Cutoffs: density                                              1.000000E-10
 DFT|          gradient                                             1.000000E-10
 DFT|          tau                                                  1.000000E-10
 DFT|          cutoff_smoothing_range                               0.000000E+00
 DFT| XC density smoothing                                                  NONE
 DFT| XC derivatives                                                          PW
 FUNCTIONAL| ROUTINE=NEW
 FUNCTIONAL| BECKE88:
 FUNCTIONAL| A. Becke, Phys. Rev. A 38, 3098 (1988) {LDA version}
 FUNCTIONAL| LYP:
 FUNCTIONAL| C. Lee, W. Yang, R.G. Parr, Phys. Rev. B, 37, 785 (1988) {LDA versi
 FUNCTIONAL| on}

 QS| Method:                                                                 GPW
 QS| Density plane wave grid type                        NON-SPHERICAL FULLSPACE
 QS| Number of grid levels:                                                    5
 QS| Density cutoff [a.u.]:                                                500.0
 QS| Multi grid cutoff [a.u.]: 1) grid level                               500.0
 QS|                           2) grid level                               166.7
 QS|                           3) grid level                                55.6
 QS|                           4) grid level                                18.5
 QS|                           5) grid level                                 6.2
 QS| Grid level progression factor:                                          3.0
 QS| Relative density cutoff [a.u.]:                                        15.0
 QS| Consistent realspace mapping and integration 
 QS| Interaction thresholds: eps_pgf_orb:                                1.0E-05
 QS|                         eps_filter_matrix:                          0.0E+00
 QS|                         eps_core_charge:                            1.0E-12
 QS|                         eps_rho_gspace:                             1.0E-10
 QS|                         eps_rho_rspace:                             1.0E-10
 QS|                         eps_gvg_rspace:                             1.0E-05
 QS|                         eps_ppl:                                    1.0E-02
 QS|                         eps_ppnl:                                   1.0E-07


 ATOMIC KIND INFORMATION

  1. Atomic kind: O                                     Number of atoms:     125

     Orbital basis set information for                          TZV2P-MOLOPT-GTH

       Number of orbital shell sets:                                           1
       Number of orbital shells:                                               8
       Number of primitive Cartesian functions:                                7
       Number of Cartesian basis functions:                                   24
       Number of spherical basis functions:                                   22

       Normalised Cartesian orbitals:

                        Set   Shell   Orbital            Exponent    Coefficient

                          1       1    2s               12.015955      -0.284499
                                                         5.108150      -0.322498
                                                         2.048398       0.148191
                                                         0.832382       0.295475
                                                         0.352316       0.150829
                                                         0.142977       0.015788
                                                         0.046761      -0.000019

                          1       2    3s               12.015955       0.725622
                                                         5.108150       0.644384
                                                         2.048398      -0.157350
                                                         0.832382      -0.853528
                                                         0.352316       0.146068
                                                         0.142977       0.153978
                                                         0.046761       0.000658

                          1       3    4s               12.015955       1.228006
                                                         5.108150       1.271453
                                                         2.048398      -0.537390
                                                         0.832382      -1.759282
                                                         0.352316       1.533697
                                                         0.142977      -0.562509
                                                         0.046761       0.081954

                          1       4    3px              12.015955       1.192141
                                                         5.108150       1.354170
                                                         2.048398       0.897267
                                                         0.832382       0.408839
                                                         0.352316       0.116648
                                                         0.142977       0.022184
                                                         0.046761       0.000308
                          1       4    3py              12.015955       1.192141
                                                         5.108150       1.354170
                                                         2.048398       0.897267
                                                         0.832382       0.408839
                                                         0.352316       0.116648
                                                         0.142977       0.022184
                                                         0.046761       0.000308
                          1       4    3pz              12.015955       1.192141
                                                         5.108150       1.354170
                                                         2.048398       0.897267
                                                         0.832382       0.408839
                                                         0.352316       0.116648
                                                         0.142977       0.022184
                                                         0.046761       0.000308

                          1       5    4px              12.015955      -1.062381
                                                         5.108150      -1.285791
                                                         2.048398      -0.727000
                                                         0.832382      -0.522764
                                                         0.352316       0.182681
                                                         0.142977       0.087560
                                                         0.046761       0.000981
                          1       5    4py              12.015955      -1.062381
                                                         5.108150      -1.285791
                                                         2.048398      -0.727000
                                                         0.832382      -0.522764
                                                         0.352316       0.182681
                                                         0.142977       0.087560
                                                         0.046761       0.000981
                          1       5    4pz              12.015955      -1.062381
                                                         5.108150      -1.285791
                                                         2.048398      -0.727000
                                                         0.832382      -0.522764
                                                         0.352316       0.182681
                                                         0.142977       0.087560
                                                         0.046761       0.000981

                          1       6    5px              12.015955      -0.063722
                                                         5.108150       0.363638
                                                         2.048398       0.015152
                                                         0.832382      -0.083580
                                                         0.352316       0.692078
                                                         0.142977      -0.184312
                                                         0.046761       0.007664
                          1       6    5py              12.015955      -0.063722
                                                         5.108150       0.363638
                                                         2.048398       0.015152
                                                         0.832382      -0.083580
                                                         0.352316       0.692078
                                                         0.142977      -0.184312
                                                         0.046761       0.007664
                          1       6    5pz              12.015955      -0.063722
                                                         5.108150       0.363638
                                                         2.048398       0.015152
                                                         0.832382      -0.083580
                                                         0.352316       0.692078
                                                         0.142977      -0.184312
                                                         0.046761       0.007664

                          1       7    4dx2             12.015955       1.125955
                                                         5.108150       1.160468
                                                         2.048398       0.999335
                                                         0.832382       0.756334
                                                         0.352316       0.048604
                                                         0.142977       0.010378
                                                         0.046761      -0.000027
                          1       7    4dxy             12.015955       1.950212
                                                         5.108150       2.009990
                                                         2.048398       1.730899
                                                         0.832382       1.310009
                                                         0.352316       0.084185
                                                         0.142977       0.017974
                                                         0.046761      -0.000046
                          1       7    4dxz             12.015955       1.950212
                                                         5.108150       2.009990
                                                         2.048398       1.730899
                                                         0.832382       1.310009
                                                         0.352316       0.084185
                                                         0.142977       0.017974
                                                         0.046761      -0.000046
                          1       7    4dy2             12.015955       1.125955
                                                         5.108150       1.160468
                                                         2.048398       0.999335
                                                         0.832382       0.756334
                                                         0.352316       0.048604
                                                         0.142977       0.010378
                                                         0.046761      -0.000027
                          1       7    4dyz             12.015955       1.950212
                                                         5.108150       2.009990
                                                         2.048398       1.730899
                                                         0.832382       1.310009
                                                         0.352316       0.084185
                                                         0.142977       0.017974
                                                         0.046761      -0.000046
                          1       7    4dz2             12.015955       1.125955
                                                         5.108150       1.160468
                                                         2.048398       0.999335
                                                         0.832382       0.756334
                                                         0.352316       0.048604
                                                         0.142977       0.010378
                                                         0.046761      -0.000027

                          1       8    5dx2             12.015955      -2.135425
                                                         5.108150       0.581743
                                                         2.048398      -1.302492
                                                         0.832382       0.098118
                                                         0.352316       0.292085
                                                         0.142977      -0.022029
                                                         0.046761      -0.003795
                          1       8    5dxy             12.015955      -3.698665
                                                         5.108150       1.007608
                                                         2.048398      -2.255983
                                                         0.832382       0.169945
                                                         0.352316       0.505906
                                                         0.142977      -0.038155
                                                         0.046761      -0.006574
                          1       8    5dxz             12.015955      -3.698665
                                                         5.108150       1.007608
                                                         2.048398      -2.255983
                                                         0.832382       0.169945
                                                         0.352316       0.505906
                                                         0.142977      -0.038155
                                                         0.046761      -0.006574
                          1       8    5dy2             12.015955      -2.135425
                                                         5.108150       0.581743
                                                         2.048398      -1.302492
                                                         0.832382       0.098118
                                                         0.352316       0.292085
                                                         0.142977      -0.022029
                                                         0.046761      -0.003795
                          1       8    5dyz             12.015955      -3.698665
                                                         5.108150       1.007608
                                                         2.048398      -2.255983
                                                         0.832382       0.169945
                                                         0.352316       0.505906
                                                         0.142977      -0.038155
                                                         0.046761      -0.006574
                          1       8    5dz2             12.015955      -2.135425
                                                         5.108150       0.581743
                                                         2.048398      -1.302492
                                                         0.832382       0.098118
                                                         0.352316       0.292085
                                                         0.142977      -0.022029
                                                         0.046761      -0.003795

     Potential information for                                       GTH-BLYP-q6

       Description:                       Goedecker-Teter-Hutter pseudopotential
                                           Goedecker et al., PRB 54, 1703 (1996)
                                          Hartwigsen et al., PRB 58, 3641 (1998)
                                                      Krack, TCA 114, 145 (2005)

       Gaussian exponent of the core charge distribution:               8.438331
       Electronic configuration (s p d ...):                               2   4

       Parameters of the local part of the GTH pseudopotential:

                          rloc        C1          C2          C3          C4
                        0.243420  -16.991892    2.566142

       Parameters of the non-local part of the GTH pseudopotential:

                   l      r(l)      h(i,j,l)

                   0    0.220831   18.388851
                   1    0.217201

  2. Atomic kind: H                                     Number of atoms:     250

     Orbital basis set information for                          TZV2P-MOLOPT-GTH

       Number of orbital shell sets:                                           1
       Number of orbital shells:                                               5
       Number of primitive Cartesian functions:                                7
       Number of Cartesian basis functions:                                    9
       Number of spherical basis functions:                                    9

       Normalised Cartesian orbitals:

                        Set   Shell   Orbital            Exponent    Coefficient

                          1       1    2s               11.478000       0.129129
                                                         3.700759       0.177012
                                                         1.446884       0.141285
                                                         0.716815       0.245670
                                                         0.247919       0.094768
                                                         0.066918       0.004062
                                                         0.021708      -0.000053

                          1       2    3s               11.478000      -0.079256
                                                         3.700759      -0.152992
                                                         1.446884       0.015066
                                                         0.716815      -0.331234
                                                         0.247919       0.210690
                                                         0.066918       0.058630
                                                         0.021708      -0.003429

                          1       3    4s               11.478000      -0.246880
                                                         3.700759       0.023016
                                                         1.446884      -1.109374
                                                         0.716815       1.524652
                                                         0.247919      -0.227968
                                                         0.066918      -0.037343
                                                         0.021708       0.005696

                          1       4    3px              11.478000       0.325290
                                                         3.700759       0.187466
                                                         1.446884       0.443300
                                                         0.716815       0.267738
                                                         0.247919       0.088285
                                                         0.066918       0.019092
                                                         0.021708       0.000629
                          1       4    3py              11.478000       0.325290
                                                         3.700759       0.187466
                                                         1.446884       0.443300
                                                         0.716815       0.267738
                                                         0.247919       0.088285
                                                         0.066918       0.019092
                                                         0.021708       0.000629
                          1       4    3pz              11.478000       0.325290
                                                         3.700759       0.187466
                                                         1.446884       0.443300
                                                         0.716815       0.267738
                                                         0.247919       0.088285
                                                         0.066918       0.019092
                                                         0.021708       0.000629

                          1       5    4px              11.478000      -1.727188
                                                         3.700759      -0.598393
                                                         1.446884      -3.813128
                                                         0.716815       1.901151
                                                         0.247919      -0.262425
                                                         0.066918       0.006339
                                                         0.021708       0.007345
                          1       5    4py              11.478000      -1.727188
                                                         3.700759      -0.598393
                                                         1.446884      -3.813128
                                                         0.716815       1.901151
                                                         0.247919      -0.262425
                                                         0.066918       0.006339
                                                         0.021708       0.007345
                          1       5    4pz              11.478000      -1.727188
                                                         3.700759      -0.598393
                                                         1.446884      -3.813128
                                                         0.716815       1.901151
                                                         0.247919      -0.262425
                                                         0.066918       0.006339
                                                         0.021708       0.007345

     Potential information for                                       GTH-BLYP-q1

       Description:                       Goedecker-Teter-Hutter pseudopotential
                                           Goedecker et al., PRB 54, 1703 (1996)
                                          Hartwigsen et al., PRB 58, 3641 (1998)
                                                      Krack, TCA 114, 145 (2005)

       Gaussian exponent of the core charge distribution:              12.500000
       Electronic configuration (s p d ...):                                   1

       Parameters of the local part of the GTH pseudopotential:

                          rloc        C1          C2          C3          C4
                        0.200000   -4.195961    0.730498


 MOLECULE KIND INFORMATION

     1. Molecule kind: H2O                       Number of atoms:              3
                     Atom         Atomic kind name
                        1                        O
                        2                        H
                        3                        H

        The name was automatically generated: F
        Number of molecules:    125
        Molecule list:                1         2         3         4         5
                                      6         7         8         9        10
                                     11        12        13        14        15
                                     16        17        18        19        20
                                     21        22        23        24        25
                                     26        27        28        29        30
                                     31        32        33        34        35
                                     36        37        38        39        40
                                     41        42        43        44        45
                                     46        47        48        49        50
                                     51        52        53        54        55
                                     56        57        58        59        60
                                     61        62        63        64        65
                                     66        67        68        69        70
                                     71        72        73        74        75
                                     76        77        78        79        80
                                     81        82        83        84        85
                                     86        87        88        89        90
                                     91        92        93        94        95
                                     96        97        98        99       100
                                    101       102       103       104       105
                                    106       107       108       109       110
                                    111       112       113       114       115
                                    116       117       118       119       120
                                    121       122       123       124       125
        Number of bonds:            2
        Number of bends:            1
        Number of Urey-Bradley:     1


 MOLECULE KIND SET INFORMATION               Total Number of bonds:          250
                                             Total Number of bends:          125
                                             Total Number of Urey-Bradley:   125
                                             Total Number of torsions:         0
                                             Total Number of improper:         0
                                              Total Number of opbends:         0


 TOTAL NUMBERS AND MAXIMUM NUMBERS

  Total number of            - Atomic kinds:                                   2
                             - Atoms:                                        375
                             - Shell sets:                                   375
                             - Shells:                                      2250
                             - Primitive Cartesian functions:               2625
                             - Cartesian basis functions:                   5250
                             - Spherical basis functions:                   5000

  Maximum angular momentum of- Orbital basis functions:                        2
                             - Local part of the GTH pseudopotential:          2
                             - Non-local part of the GTH pseudopotential:      0


 MODULE QUICKSTEP:  ATOMIC COORDINATES IN angstrom

  Atom  Kind  Element       X           Y           Z          Z(eff)       Mass

       1     1 O    8    1.875851    1.854714    1.641539      6.00      15.9994
       2     2 H    1    1.286161    2.446622    2.189262      1.00       1.0079
       3     2 H    1    1.427602    1.638640    0.755022      1.00       1.0079
       4     1 O    8    7.826214    2.513431   14.781689      6.00      15.9994
       5     2 H    1    8.208829    1.650471   14.539343      1.00       1.0079
       6     2 H    1    8.436077    3.283892   14.837990      1.00       1.0079
       7     1 O    8    3.057884    6.201810   10.976330      6.00      15.9994
       8     2 H    1    3.458557    6.939297   10.526607      1.00       1.0079
       9     2 H    1    3.794218    5.871260   11.507520      1.00       1.0079
      10     1 O    8    4.604495   14.888321   14.362887      6.00      15.9994
      11     2 H    1    4.925431   15.743944   13.987974      1.00       1.0079
      12     2 H    1    3.598087   14.973086   14.438842      1.00       1.0079
      13     1 O    8    8.133851    9.637390    4.853790      6.00      15.9994
      14     2 H    1    9.164578    9.439471    4.881686      1.00       1.0079
      15     2 H    1    7.997152   10.537183    5.270025      1.00       1.0079
      16     1 O    8    1.551671    4.927501    8.283843      6.00      15.9994
      17     2 H    1    1.188882    4.827040    7.389151      1.00       1.0079
      18     2 H    1    1.483878    5.858064    8.614165      1.00       1.0079
      19     1 O    8    4.186135    6.336502    6.986358      6.00      15.9994
      20     2 H    1    4.760180    5.598617    7.082512      1.00       1.0079
      21     2 H    1    4.821881    6.982118    6.423334      1.00       1.0079
      22     1 O    8    6.187145   10.301466    2.361639      6.00      15.9994
      23     2 H    1    5.290911   10.754713    2.591096      1.00       1.0079
      24     2 H    1    6.452646    9.676064    3.078483      1.00       1.0079
      25     1 O    8    5.428187    2.518569   13.594263      6.00      15.9994
      26     2 H    1    4.706079    2.766302   14.227398      1.00       1.0079
      27     2 H    1    6.266597    2.424794   14.111360      1.00       1.0079
      28     1 O    8   13.641389    3.719674    8.221192      6.00      15.9994
      29     2 H    1   13.178560    2.966245    8.591683      1.00       1.0079
      30     2 H    1   14.056457    3.947200    9.075565      1.00       1.0079
      31     1 O    8   14.809689   14.730838    4.030454      6.00      15.9994
      32     2 H    1   13.893434   14.573402    4.262325      1.00       1.0079
      33     2 H    1   14.915285   15.079396    3.129025      1.00       1.0079
      34     1 O    8    7.720218   12.827654   14.913733      6.00      15.9994
      35     2 H    1    8.102116   12.132270   14.236033      1.00       1.0079
      36     2 H    1    6.703203   12.741964   14.953028      1.00       1.0079
      37     1 O    8    6.195635    4.671778    9.097061      6.00      15.9994
      38     2 H    1    5.319391    4.333779    8.637948      1.00       1.0079
      39     2 H    1    6.068760    5.667200    9.126719      1.00       1.0079
      40     1 O    8   13.136604   13.682056    0.253700      6.00      15.9994
      41     2 H    1   13.419080   14.511418    0.753176      1.00       1.0079
      42     2 H    1   13.168212   13.000156    0.964943      1.00       1.0079
      43     1 O    8   10.083588    5.688265    9.073053      6.00      15.9994
      44     2 H    1   10.665942    5.871748    8.298250      1.00       1.0079
      45     2 H    1    9.609074    4.903500    8.788409      1.00       1.0079
      46     1 O    8    4.292563   12.512633    3.528858      6.00      15.9994
      47     2 H    1    4.079023   11.776011    4.137939      1.00       1.0079
      48     2 H    1    3.769435   12.276844    2.680198      1.00       1.0079
      49     1 O    8    8.534802    7.528051    7.672472      6.00      15.9994
      50     2 H    1    8.918661    6.927841    8.297550      1.00       1.0079
      51     2 H    1    8.261552    7.055986    6.886052      1.00       1.0079
      52     1 O    8   10.898533   11.813992    8.467764      6.00      15.9994
      53     2 H    1   10.279443   11.106077    8.669531      1.00       1.0079
      54     2 H    1   11.082981   12.228291    9.333161      1.00       1.0079
      55     1 O    8    0.191920    5.727120   13.610848      6.00      15.9994
      56     2 H    1    0.119636    5.579918   14.625495      1.00       1.0079
      57     2 H    1   -0.531570    5.111899   13.312016      1.00       1.0079
      58     1 O    8   13.017414    4.292708    1.005262      6.00      15.9994
      59     2 H    1   13.090533    3.685308    1.788836      1.00       1.0079
      60     2 H    1   13.937178    4.498476    0.755502      1.00       1.0079
      61     1 O    8   10.787450   11.497482   13.004690      6.00      15.9994
      62     2 H    1   11.624479   11.051238   13.283479      1.00       1.0079
      63     2 H    1   10.990978   12.104194   12.186338      1.00       1.0079
      64     1 O    8    3.341395    0.686737    9.708781      6.00      15.9994
      65     2 H    1    3.745440    1.552875    9.865715      1.00       1.0079
      66     2 H    1    3.896164    0.336559    8.968351      1.00       1.0079
      67     1 O    8    5.527525   10.175533   13.230354      6.00      15.9994
      68     2 H    1    6.420513   10.278629   13.562906      1.00       1.0079
      69     2 H    1    5.207029    9.244722   13.458018      1.00       1.0079
      70     1 O    8    0.034090    3.484442    6.247334      6.00      15.9994
      71     2 H    1    0.425412    3.108979    5.411202      1.00       1.0079
      72     2 H    1    0.001497    2.779676    6.905996      1.00       1.0079
      73     1 O    8    0.022207   11.742717   11.031636      6.00      15.9994
      74     2 H    1   -0.194846   10.843483   11.410891      1.00       1.0079
      75     2 H    1    0.482956   12.416125   11.576785      1.00       1.0079
      76     1 O    8    7.705757    2.523921    5.644260      6.00      15.9994
      77     2 H    1    8.356395    2.677902    4.984892      1.00       1.0079
      78     2 H    1    6.891798    3.057390    5.452959      1.00       1.0079
      79     1 O    8    4.453106   14.027904   11.388419      6.00      15.9994
      80     2 H    1    4.592472   14.623941   12.164915      1.00       1.0079
      81     2 H    1    3.953102   14.492505   10.677197      1.00       1.0079
      82     1 O    8    2.068042   13.467884    9.318045      6.00      15.9994
      83     2 H    1    2.820424   13.006793    8.792364      1.00       1.0079
      84     2 H    1    1.281134   13.149970    8.761852      1.00       1.0079
      85     1 O    8   11.414095    6.400984    0.454352      6.00      15.9994
      86     2 H    1   12.157450    5.742944    0.638801      1.00       1.0079
      87     2 H    1   11.623443    6.890764   -0.342974      1.00       1.0079
      88     1 O    8    2.793049   11.664521    1.124758      6.00      15.9994
      89     2 H    1    2.294787   10.801340    1.193386      1.00       1.0079
      90     2 H    1    3.582061   11.627560    0.454579      1.00       1.0079
      91     1 O    8    5.097916    5.164276   12.617928      6.00      15.9994
      92     2 H    1    5.395432    4.295760   12.998250      1.00       1.0079
      93     2 H    1    5.920380    5.694744   12.367894      1.00       1.0079
      94     1 O    8    8.527804    3.640251    8.160956      6.00      15.9994
      95     2 H    1    8.492532    3.325928    7.220600      1.00       1.0079
      96     2 H    1    7.590996    3.884293    8.329048      1.00       1.0079
      97     1 O    8    2.746601    4.182366    4.223651      6.00      15.9994
      98     2 H    1    2.508653    4.723064    5.000607      1.00       1.0079
      99     2 H    1    2.802744    4.785537    3.516612      1.00       1.0079
     100     1 O    8    8.782677    9.913607    9.209957      6.00      15.9994
     101     2 H    1    7.857442   10.237594    9.493184      1.00       1.0079
     102     2 H    1    8.552704    9.141703    8.636025      1.00       1.0079
     103     1 O    8    9.669157    4.804617   14.735057      6.00      15.9994
     104     2 H    1   10.236513    5.489875   15.142433      1.00       1.0079
     105     2 H    1   10.281027    4.062031   14.483121      1.00       1.0079
     106     1 O    8    2.136241   10.200480    9.715663      6.00      15.9994
     107     2 H    1    1.360756   10.648989   10.005265      1.00       1.0079
     108     2 H    1    2.926927   10.579248   10.195318      1.00       1.0079
     109     1 O    8    8.920404    0.180661   13.655337      6.00      15.9994
     110     2 H    1    9.709344   -0.231141   14.088780      1.00       1.0079
     111     2 H    1    8.194741   -0.391577   13.876584      1.00       1.0079
     112     1 O    8    9.328930   14.340490    5.144451      6.00      15.9994
     113     2 H    1    8.657421   14.787950    5.719119      1.00       1.0079
     114     2 H    1    9.251487   14.422411    4.176033      1.00       1.0079
     115     1 O    8   14.019062    7.314586    9.719386      6.00      15.9994
     116     2 H    1   13.569287    6.539344   10.152240      1.00       1.0079
     117     2 H    1   13.348891    8.084451    9.521801      1.00       1.0079
     118     1 O    8    3.881560   10.535645    5.563157      6.00      15.9994
     119     2 H    1    2.954734   10.413435    5.927941      1.00       1.0079
     120     2 H    1    4.274824   11.089385    6.294858      1.00       1.0079
     121     1 O    8    0.579375    2.559533    3.815765      6.00      15.9994
     122     2 H    1    1.301248    3.238962    3.894547      1.00       1.0079
     123     2 H    1    1.001115    1.704224    3.805934      1.00       1.0079
     124     1 O    8   11.490496   12.149462    4.024164      6.00      15.9994
     125     2 H    1   12.273249   11.992632    3.410456      1.00       1.0079
     126     2 H    1   11.696796   12.805940    4.712243      1.00       1.0079
     127     1 O    8    9.625653    1.206128    8.074499      6.00      15.9994
     128     2 H    1    9.156459    2.043072    8.160504      1.00       1.0079
     129     2 H    1    9.116154    0.611361    8.707272      1.00       1.0079
     130     1 O    8    3.053562    5.496690    1.358189      6.00      15.9994
     131     2 H    1    3.378215    4.782619    0.713873      1.00       1.0079
     132     2 H    1    3.904785    5.876781    1.698340      1.00       1.0079
     133     1 O    8   14.232306   14.186420   10.370738      6.00      15.9994
     134     2 H    1   14.569194   13.247288   10.424620      1.00       1.0079
     135     2 H    1   14.965958   14.816935   10.118971      1.00       1.0079
     136     1 O    8   10.527244    8.072246   10.806366      6.00      15.9994
     137     2 H    1   10.294722    7.147766   10.397740      1.00       1.0079
     138     2 H    1    9.815489    8.661349   10.422375      1.00       1.0079
     139     1 O    8    0.097567   12.213023   14.973365      6.00      15.9994
     140     2 H    1   -0.067433   11.294778   15.210684      1.00       1.0079
     141     2 H    1   -0.401013   12.744400   15.662656      1.00       1.0079
     142     1 O    8   12.926520    9.291013    0.784870      6.00      15.9994
     143     2 H    1   11.927925    9.377302    0.929944      1.00       1.0079
     144     2 H    1   12.984671    9.557090   -0.146822      1.00       1.0079
     145     1 O    8   13.174670    2.289840    3.165819      6.00      15.9994
     146     2 H    1   14.037969    2.678585    3.506544      1.00       1.0079
     147     2 H    1   12.494302    2.701295    3.733869      1.00       1.0079
     148     1 O    8    8.818492   14.574849   11.180732      6.00      15.9994
     149     2 H    1    8.981452   15.058722   12.019574      1.00       1.0079
     150     2 H    1    8.162881   13.834720   11.389300      1.00       1.0079
     151     1 O    8   13.579151   11.791949    2.297613      6.00      15.9994
     152     2 H    1   14.466511   11.704675    2.719287      1.00       1.0079
     153     2 H    1   13.478347   10.897021    1.925874      1.00       1.0079
     154     1 O    8    3.153479    8.643788    0.664496      6.00      15.9994
     155     2 H    1    3.390600    8.268483    1.523968      1.00       1.0079
     156     2 H    1    3.764874    8.167481    0.014017      1.00       1.0079
     157     1 O    8    1.046839    7.607628    8.918628      6.00      15.9994
     158     2 H    1    0.169556    7.384652    9.316696      1.00       1.0079
     159     2 H    1    1.335623    8.405255    9.373126      1.00       1.0079
     160     1 O    8    8.415135   11.789978    1.661978      6.00      15.9994
     161     2 H    1    7.546127   11.533761    2.054985      1.00       1.0079
     162     2 H    1    8.194988   12.058727    0.721841      1.00       1.0079
     163     1 O    8   10.141216    5.792100    4.925269      6.00      15.9994
     164     2 H    1    9.962267    6.600594    4.410640      1.00       1.0079
     165     2 H    1    9.889370    5.064444    4.360930      1.00       1.0079
     166     1 O    8    0.473442    9.546890   15.432260      6.00      15.9994
     167     2 H    1   -0.227201    9.035193   15.944332      1.00       1.0079
     168     2 H    1    1.361992    9.139195   15.658595      1.00       1.0079
     169     1 O    8   10.576169   13.675416   14.869206      6.00      15.9994
     170     2 H    1   10.531362   12.872677   14.244255      1.00       1.0079
     171     2 H    1   11.490675   13.706109   15.312374      1.00       1.0079
     172     1 O    8    7.257614   12.199793    5.588264      6.00      15.9994
     173     2 H    1    8.189691   12.525041    5.617822      1.00       1.0079
     174     2 H    1    6.845567   12.603022    4.765214      1.00       1.0079
     175     1 O    8   12.623468    8.377126    6.148142      6.00      15.9994
     176     2 H    1   12.441916    7.408009    6.295378      1.00       1.0079
     177     2 H    1   12.497718    8.834905    7.017658      1.00       1.0079
     178     1 O    8    0.514893   12.338604    4.634448      6.00      15.9994
     179     2 H    1    0.073224   13.238663    4.386225      1.00       1.0079
     180     2 H    1    0.795229   12.379813    5.601918      1.00       1.0079
     181     1 O    8   11.920085    5.977232    7.031587      6.00      15.9994
     182     2 H    1   12.478906    5.209368    7.485548      1.00       1.0079
     183     2 H    1   11.508956    5.436268    6.298328      1.00       1.0079
     184     1 O    8    2.159891   11.151749   13.284126      6.00      15.9994
     185     2 H    1    1.796794   11.496621   14.157297      1.00       1.0079
     186     2 H    1    2.429175   10.261491   13.567418      1.00       1.0079
     187     1 O    8    7.142325    3.755028    1.756547      6.00      15.9994
     188     2 H    1    7.295441    3.229127    0.945826      1.00       1.0079
     189     2 H    1    7.091948    4.696319    1.419013      1.00       1.0079
     190     1 O    8    8.187921    7.394333   14.317517      6.00      15.9994
     191     2 H    1    7.756211    7.529725   15.157760      1.00       1.0079
     192     2 H    1    8.642131    6.504031   14.422065      1.00       1.0079
     193     1 O    8   12.478623    5.262844   10.993936      6.00      15.9994
     194     2 H    1   12.944412    4.462604   11.395526      1.00       1.0079
     195     2 H    1   11.819723    4.922808   10.332136      1.00       1.0079
     196     1 O    8    0.441650    1.728897   14.924111      6.00      15.9994
     197     2 H    1    0.852915    2.482285   14.400751      1.00       1.0079
     198     2 H    1    0.829575    0.868099   14.645260      1.00       1.0079
     199     1 O    8    9.494881    3.278542    3.306775      6.00      15.9994
     200     2 H    1    8.901131    3.566710    2.616086      1.00       1.0079
     201     2 H    1    9.770963    2.360165    3.143175      1.00       1.0079
     202     1 O    8    0.253344    3.442696   10.134226      6.00      15.9994
     203     2 H    1    0.813256    3.922513    9.461759      1.00       1.0079
     204     2 H    1    0.263459    2.458073    9.868551      1.00       1.0079
     205     1 O    8    0.116687    5.264260    0.899836      6.00      15.9994
     206     2 H    1   -0.083052    6.118884    1.351966      1.00       1.0079
     207     2 H    1    1.055054    5.220818    1.038116      1.00       1.0079
     208     1 O    8   12.967342   10.109663   13.662006      6.00      15.9994
     209     2 H    1   13.842077   10.148296   13.308547      1.00       1.0079
     210     2 H    1   12.753015    9.200752   13.364487      1.00       1.0079
     211     1 O    8   15.287612    7.962780    6.358264      6.00      15.9994
     212     2 H    1   15.529516    7.827510    7.361842      1.00       1.0079
     213     2 H    1   14.320783    8.292314    6.435111      1.00       1.0079
     214     1 O    8   12.797128    3.834299    5.291071      6.00      15.9994
     215     2 H    1   12.615351    3.123731    6.005561      1.00       1.0079
     216     2 H    1   13.636942    4.180161    5.545962      1.00       1.0079
     217     1 O    8   12.871270    1.176687   13.029102      6.00      15.9994
     218     2 H    1   12.507702    1.259217   12.108349      1.00       1.0079
     219     2 H    1   13.229061    0.298300   13.019364      1.00       1.0079
     220     1 O    8    3.934342    7.581284    3.469844      6.00      15.9994
     221     2 H    1    4.438517    8.096992    4.157690      1.00       1.0079
     222     2 H    1    3.169366    7.253993    4.009318      1.00       1.0079
     223     1 O    8   15.138650    9.240563   12.180402      6.00      15.9994
     224     2 H    1   16.027235    9.321300   12.602650      1.00       1.0079
     225     2 H    1   14.905840    8.397709   11.776305      1.00       1.0079
     226     1 O    8    2.760046    0.230103    4.006396      6.00      15.9994
     227     2 H    1    3.096219   -0.630791    3.732017      1.00       1.0079
     228     2 H    1    2.828787    0.693623    3.178181      1.00       1.0079
     229     1 O    8    9.398299    7.245520    2.088403      6.00      15.9994
     230     2 H    1   10.076521    6.911102    1.501750      1.00       1.0079
     231     2 H    1    9.702686    8.152929    2.071571      1.00       1.0079
     232     1 O    8    6.108446    4.084265    4.332471      6.00      15.9994
     233     2 H    1    6.567937    4.290140    3.456317      1.00       1.0079
     234     2 H    1    5.201958    3.763905    4.145805      1.00       1.0079
     235     1 O    8    0.147669    9.918550    3.410649      6.00      15.9994
     236     2 H    1    0.359817   10.870598    3.758493      1.00       1.0079
     237     2 H    1   -0.083745    9.436559    4.235518      1.00       1.0079
     238     1 O    8    7.227695    0.144061    9.306103      6.00      15.9994
     239     2 H    1    7.667792   -0.374141   10.048582      1.00       1.0079
     240     2 H    1    6.798030    0.966722    9.752133      1.00       1.0079
     241     1 O    8    1.774240    3.513145   13.253554      6.00      15.9994
     242     2 H    1    2.046145    3.389468   12.271557      1.00       1.0079
     243     2 H    1    1.232902    4.314457   13.331856      1.00       1.0079
     244     1 O    8   14.053901    0.413012    1.386358      6.00      15.9994
     245     2 H    1   13.501505    1.068975    1.909307      1.00       1.0079
     246     2 H    1   14.493826    1.004363    0.726163      1.00       1.0079
     247     1 O    8    6.840626    7.133386   11.837687      6.00      15.9994
     248     2 H    1    6.734501    8.024337   11.440758      1.00       1.0079
     249     2 H    1    7.322292    7.351277   12.676255      1.00       1.0079
     250     1 O    8   12.208089    9.108486    8.768457      6.00      15.9994
     251     2 H    1   11.770090   10.005127    8.782646      1.00       1.0079
     252     2 H    1   11.716649    8.680623    9.499680      1.00       1.0079
     253     1 O    8   11.329795    2.567943   14.802232      6.00      15.9994
     254     2 H    1   11.910768    2.273194   14.122010      1.00       1.0079
     255     2 H    1   11.883846    2.984036   15.443269      1.00       1.0079
     256     1 O    8   12.095991    7.491648   13.229487      6.00      15.9994
     257     2 H    1   11.287083    7.496209   12.621476      1.00       1.0079
     258     2 H    1   12.665767    6.820946   12.795087      1.00       1.0079
     259     1 O    8   10.595872    9.904900    2.184701      6.00      15.9994
     260     2 H    1   10.663906    9.725924    3.199234      1.00       1.0079
     261     2 H    1    9.784093   10.331670    1.888347      1.00       1.0079
     262     1 O    8    8.263470   10.368499   13.481982      6.00      15.9994
     263     2 H    1    9.176471   10.507877   13.229502      1.00       1.0079
     264     2 H    1    8.295554    9.535138   14.058781      1.00       1.0079
     265     1 O    8    6.640070   13.749172    3.408040      6.00      15.9994
     266     2 H    1    7.105197   13.898451    2.539995      1.00       1.0079
     267     2 H    1    5.768536   13.338493    3.268177      1.00       1.0079
     268     1 O    8    1.434071   10.256165    7.024212      6.00      15.9994
     269     2 H    1    0.879939    9.570646    6.601334      1.00       1.0079
     270     2 H    1    1.572725    9.910134    7.911757      1.00       1.0079
     271     1 O    8    5.984662    2.108320   10.697564      6.00      15.9994
     272     2 H    1    5.974275    2.086161   11.654933      1.00       1.0079
     273     2 H    1    5.957533    3.055295   10.471858      1.00       1.0079
     274     1 O    8    5.489002   11.748263    7.595251      6.00      15.9994
     275     2 H    1    5.215983   12.630023    7.892512      1.00       1.0079
     276     2 H    1    6.093644   11.973637    6.883801      1.00       1.0079
     277     1 O    8    2.133713    7.804094   12.740232      6.00      15.9994
     278     2 H    1    2.392240    7.492026   11.809099      1.00       1.0079
     279     2 H    1    1.439384    7.184319   13.028510      1.00       1.0079
     280     1 O    8    7.750079   14.976401    1.233891      6.00      15.9994
     281     2 H    1    7.823915   14.518528    0.358480      1.00       1.0079
     282     2 H    1    8.640376   15.301349    1.498115      1.00       1.0079
     283     1 O    8    5.376312    8.346819    5.681125      6.00      15.9994
     284     2 H    1    4.932040    9.253894    5.636985      1.00       1.0079
     285     2 H    1    6.281034    8.507469    5.407784      1.00       1.0079
     286     1 O    8   14.389914    3.612611   12.406634      6.00      15.9994
     287     2 H    1   14.208016    2.787447   12.810474      1.00       1.0079
     288     2 H    1   14.956580    3.505839   11.587801      1.00       1.0079
     289     1 O    8   10.231073    0.920048    2.092530      6.00      15.9994
     290     2 H    1   10.699727    1.366590    1.414876      1.00       1.0079
     291     2 H    1   10.681765    0.054237    2.164062      1.00       1.0079
     292     1 O    8    4.318599    8.143210    9.379748      6.00      15.9994
     293     2 H    1    4.346890    7.671812    8.539327      1.00       1.0079
     294     2 H    1    5.217140    8.612174    9.401010      1.00       1.0079
     295     1 O    8    2.029104    6.671623    5.453201      6.00      15.9994
     296     2 H    1    1.180521    6.917584    5.847158      1.00       1.0079
     297     2 H    1    2.739316    6.790250    6.186896      1.00       1.0079
     298     1 O    8    5.154016   14.667328    8.152898      6.00      15.9994
     299     2 H    1    4.982185   15.030521    7.266678      1.00       1.0079
     300     2 H    1    6.137353   14.935276    8.350336      1.00       1.0079
     301     1 O    8   14.507870    0.473786    7.009050      6.00      15.9994
     302     2 H    1   13.616623    0.808043    7.166257      1.00       1.0079
     303     2 H    1   14.397521   -0.099162    6.228532      1.00       1.0079
     304     1 O    8    6.114555   10.097827    9.846588      6.00      15.9994
     305     2 H    1    5.511605   10.548484   10.545355      1.00       1.0079
     306     2 H    1    5.948653   10.592805    9.075760      1.00       1.0079
     307     1 O    8   13.108337   13.758694   12.705702      6.00      15.9994
     308     2 H    1   13.425377   13.417829   13.610073      1.00       1.0079
     309     2 H    1   13.867216   13.853858   12.068662      1.00       1.0079
     310     1 O    8    4.518575    1.271900    5.909910      6.00      15.9994
     311     2 H    1    3.840790    1.093822    5.172823      1.00       1.0079
     312     2 H    1    5.355683    0.735370    5.697941      1.00       1.0079
     313     1 O    8    6.899482   15.323454    5.644367      6.00      15.9994
     314     2 H    1    7.405410   16.183996    5.685939      1.00       1.0079
     315     2 H    1    7.012915   14.967172    4.740948      1.00       1.0079
     316     1 O    8   12.436806    1.454471    9.907367      6.00      15.9994
     317     2 H    1   13.155013    0.790353    9.807530      1.00       1.0079
     318     2 H    1   11.690840    1.116201    9.361168      1.00       1.0079
     319     1 O    8    6.713919   12.566665   11.829528      6.00      15.9994
     320     2 H    1    6.583990   11.701666   11.276608      1.00       1.0079
     321     2 H    1    5.873156   13.063715   11.563496      1.00       1.0079
     322     1 O    8    6.794456    6.687635    1.329189      6.00      15.9994
     323     2 H    1    7.649727    6.766748    1.780399      1.00       1.0079
     324     2 H    1    6.140088    7.296413    1.754332      1.00       1.0079
     325     1 O    8   10.648065   13.833676    2.169338      6.00      15.9994
     326     2 H    1   10.950079   13.101987    2.797074      1.00       1.0079
     327     2 H    1   10.124523   13.337146    1.479741      1.00       1.0079
     328     1 O    8    3.961981    3.649504    7.897315      6.00      15.9994
     329     2 H    1    3.077181    4.062093    8.052724      1.00       1.0079
     330     2 H    1    3.819431    2.866450    7.340735      1.00       1.0079
     331     1 O    8   10.788382    9.665868    4.896264      6.00      15.9994
     332     2 H    1   11.052438   10.568502    4.932043      1.00       1.0079
     333     2 H    1   11.486628    9.194267    5.486997      1.00       1.0079
     334     1 O    8   11.929537    1.489199    6.887826      6.00      15.9994
     335     2 H    1   11.032792    1.226220    7.236863      1.00       1.0079
     336     2 H    1   12.000774    1.026693    6.041638      1.00       1.0079
     337     1 O    8    1.729166   13.467828   12.129427      6.00      15.9994
     338     2 H    1    2.272128   12.688091   12.491306      1.00       1.0079
     339     2 H    1    1.855449   13.460796   11.140295      1.00       1.0079
     340     1 O    8    5.510601    0.662789    2.114586      6.00      15.9994
     341     2 H    1    6.394523    0.300494    2.135155      1.00       1.0079
     342     2 H    1    5.141731    0.661812    1.203980      1.00       1.0079
     343     1 O    8   11.219360   13.100513   10.859784      6.00      15.9994
     344     2 H    1   10.365104   13.636536   10.901061      1.00       1.0079
     345     2 H    1   11.969725   13.557095   11.446259      1.00       1.0079
     346     1 O    8    0.320806   12.670875    7.374131      6.00      15.9994
     347     2 H    1    0.396961   11.688269    7.344504      1.00       1.0079
     348     2 H    1   -0.628215   12.891490    7.411561      1.00       1.0079
     349     1 O    8    4.561145    7.744748   13.930225      6.00      15.9994
     350     2 H    1    3.733291    7.786863   13.450785      1.00       1.0079
     351     2 H    1    4.912204    6.828225   13.788632      1.00       1.0079
     352     1 O    8    0.498338    0.881970    9.285498      6.00      15.9994
     353     2 H    1    0.125403    0.847459    8.336233      1.00       1.0079
     354     2 H    1    1.431837    0.522713    9.254510      1.00       1.0079
     355     1 O    8   14.968121    7.700821    1.681268      6.00      15.9994
     356     2 H    1   15.470298    8.283462    2.317652      1.00       1.0079
     357     2 H    1   14.107218    8.140841    1.580557      1.00       1.0079
     358     1 O    8    4.059025   11.205212   11.190376      6.00      15.9994
     359     2 H    1    4.229674   12.180957   11.357288      1.00       1.0079
     360     2 H    1    4.467428   10.944718   12.053885      1.00       1.0079
     361     1 O    8    3.529628    2.874059   15.383039      6.00      15.9994
     362     2 H    1    2.882449    2.682347   16.178070      1.00       1.0079
     363     2 H    1    2.916183    3.124375   14.650819      1.00       1.0079
     364     1 O    8   12.011679   14.377720    5.492039      6.00      15.9994
     365     2 H    1   12.405656   14.131622    6.342312      1.00       1.0079
     366     2 H    1   11.031278   14.325307    5.546335      1.00       1.0079
     367     1 O    8    5.081382   12.413791   15.109173      6.00      15.9994
     368     2 H    1    4.849992   13.292573   14.728069      1.00       1.0079
     369     2 H    1    5.023981   11.783907   14.382414      1.00       1.0079
     370     1 O    8   12.995391   13.726293    7.830155      6.00      15.9994
     371     2 H    1   12.259228   13.106382    8.004988      1.00       1.0079
     372     2 H    1   13.345790   13.987608    8.770979      1.00       1.0079
     373     1 O    8    1.760371   14.747801   14.563123      6.00      15.9994
     374     2 H    1    1.433066   14.062187   15.183318      1.00       1.0079
     375     2 H    1    1.625756   14.341050   13.633973      1.00       1.0079



 PW_GRID: Information for grid number                                          1
 PW_GRID: Grid distributed over                                   128 processors
 PW_GRID: Real space group dimensions                                   128    1
 PW_GRID: the grid is blocked:                                                NO
 PW_GRID: Cutoff [a.u.]                                                    500.0
 PW_GRID: spherical cutoff:                                                   NO
 PW_GRID:   Bounds   1           -150     149                Points:         300
 PW_GRID:   Bounds   2           -150     149                Points:         300
 PW_GRID:   Bounds   3           -150     149                Points:         300
 PW_GRID: Volume element (a.u.^3)  0.9372E-03     Volume (a.u.^3)     25303.9229
 PW_GRID: Grid span                                                    FULLSPACE
 PW_GRID:   Distribution                         Average         Max         Min
 PW_GRID:   G-Vectors                           210937.5      211200      210900
 PW_GRID:   G-Rays                                 703.1         704         703
 PW_GRID:   Real Space Points                   210937.5      270000      180000

 PW_GRID: Information for grid number                                          2
 PW_GRID: Grid distributed over                                   128 processors
 PW_GRID: Real space group dimensions                                   128    1
 PW_GRID: the grid is blocked:                                                NO
 PW_GRID: Cutoff [a.u.]                                                    166.7
 PW_GRID: spherical cutoff:                                                   NO
 PW_GRID:   Bounds   1            -90      89                Points:         180
 PW_GRID:   Bounds   2            -90      89                Points:         180
 PW_GRID:   Bounds   3            -90      89                Points:         180
 PW_GRID: Volume element (a.u.^3)  0.4339E-02     Volume (a.u.^3)     25303.9229
 PW_GRID: Grid span                                                    FULLSPACE
 PW_GRID:   Distribution                         Average         Max         Min
 PW_GRID:   G-Vectors                            45562.5       45720       45360
 PW_GRID:   G-Rays                                 253.1         254         252
 PW_GRID:   Real Space Points                    45562.5       64800       32400

 PW_GRID: Information for grid number                                          3
 PW_GRID: Grid distributed over                                   128 processors
 PW_GRID: Real space group dimensions                                     8   16
 PW_GRID: the grid is blocked:                                                NO
 PW_GRID: Cutoff [a.u.]                                                     55.6
 PW_GRID: spherical cutoff:                                                   NO
 PW_GRID:   Bounds   1            -50      49                Points:         100
 PW_GRID:   Bounds   2            -50      49                Points:         100
 PW_GRID:   Bounds   3            -50      49                Points:         100
 PW_GRID: Volume element (a.u.^3)  0.2530E-01     Volume (a.u.^3)     25303.9229
 PW_GRID: Grid span                                                    FULLSPACE
 PW_GRID:   Distribution                         Average         Max         Min
 PW_GRID:   G-Vectors                             7812.5        7900        7700
 PW_GRID:   G-Rays                                  78.1          79          77
 PW_GRID:   Real Space Points                     7812.5        9100        7200

 PW_GRID: Information for grid number                                          4
 PW_GRID: Grid distributed over                                   128 processors
 PW_GRID: Real space group dimensions                                     8   16
 PW_GRID: the grid is blocked:                                                NO
 PW_GRID: Cutoff [a.u.]                                                     18.5
 PW_GRID: spherical cutoff:                                                   NO
 PW_GRID:   Bounds   1            -30      29                Points:          60
 PW_GRID:   Bounds   2            -30      29                Points:          60
 PW_GRID:   Bounds   3            -30      29                Points:          60
 PW_GRID: Volume element (a.u.^3)  0.1171         Volume (a.u.^3)     25303.9229
 PW_GRID: Grid span                                                    FULLSPACE
 PW_GRID:   Distribution                         Average         Max         Min
 PW_GRID:   G-Vectors                             1687.5        1740        1620
 PW_GRID:   G-Rays                                  28.1          29          27
 PW_GRID:   Real Space Points                     1687.5        1920        1260

 PW_GRID: Information for grid number                                          5
 PW_GRID: Grid distributed over                                   128 processors
 PW_GRID: Real space group dimensions                                     8   16
 PW_GRID: the grid is blocked:                                                NO
 PW_GRID: Cutoff [a.u.]                                                      6.2
 PW_GRID: spherical cutoff:                                                   NO
 PW_GRID:   Bounds   1            -18      17                Points:          36
 PW_GRID:   Bounds   2            -18      17                Points:          36
 PW_GRID:   Bounds   3            -18      17                Points:          36
 PW_GRID: Volume element (a.u.^3)  0.5424         Volume (a.u.^3)     25303.9229
 PW_GRID: Grid span                                                    FULLSPACE
 PW_GRID:   Distribution                         Average         Max         Min
 PW_GRID:   G-Vectors                              364.5         396         324
 PW_GRID:   G-Rays                                  10.1          11           9
 PW_GRID:   Real Space Points                      364.5         540         288

 RS_GRID: Information for grid number                                          1
 RS_GRID:   Bounds   1           -150     149                Points:         300
 RS_GRID:   Bounds   2           -150     149                Points:         300
 RS_GRID:   Bounds   3           -150     149                Points:         300
 RS_GRID: Real space distribution over                                  4 groups
 RS_GRID: Real space distribution along direction                              1
 RS_GRID: Border size                                                         20
 RS_GRID: Real space distribution over                                  4 groups
 RS_GRID: Real space distribution along direction                              2
 RS_GRID: Border size                                                         20
 RS_GRID: Real space distribution over                                  8 groups
 RS_GRID: Real space distribution along direction                              3
 RS_GRID: Border size                                                         20
 RS_GRID:   Distribution                         Average         Max         Min
 RS_GRID:   Planes                                 115.0         115         115
 RS_GRID:   Distribution                         Average         Max         Min
 RS_GRID:   Planes                                 115.0         115         115
 RS_GRID:   Distribution                         Average         Max         Min
 RS_GRID:   Planes                                  77.5          78          77

 RS_GRID: Information for grid number                                          2
 RS_GRID:   Bounds   1            -90      89                Points:         180
 RS_GRID:   Bounds   2            -90      89                Points:         180
 RS_GRID:   Bounds   3            -90      89                Points:         180
 RS_GRID: Real space distribution over                                  4 groups
 RS_GRID: Real space distribution along direction                              1
 RS_GRID: Border size                                                         18
 RS_GRID: Real space distribution over                                  4 groups
 RS_GRID: Real space distribution along direction                              2
 RS_GRID: Border size                                                         18
 RS_GRID: Real space distribution over                                  8 groups
 RS_GRID: Real space distribution along direction                              3
 RS_GRID: Border size                                                         18
 RS_GRID:   Distribution                         Average         Max         Min
 RS_GRID:   Planes                                  81.0          81          81
 RS_GRID:   Distribution                         Average         Max         Min
 RS_GRID:   Planes                                  81.0          81          81
 RS_GRID:   Distribution                         Average         Max         Min
 RS_GRID:   Planes                                  58.5          59          58

 RS_GRID: Information for grid number                                          3
 RS_GRID:   Bounds   1            -50      49                Points:         100
 RS_GRID:   Bounds   2            -50      49                Points:         100
 RS_GRID:   Bounds   3            -50      49                Points:         100
 RS_GRID: Real space fully replicated
 RS_GRID: Group size                                                           1

 RS_GRID: Information for grid number                                          4
 RS_GRID:   Bounds   1            -30      29                Points:          60
 RS_GRID:   Bounds   2            -30      29                Points:          60
 RS_GRID:   Bounds   3            -30      29                Points:          60
 RS_GRID: Real space fully replicated
 RS_GRID: Group size                                                           1

 RS_GRID: Information for grid number                                          5
 RS_GRID:   Bounds   1            -18      17                Points:          36
 RS_GRID:   Bounds   2            -18      17                Points:          36
[...]
 VAR1: |Q.X|:   0.13183104577451180     
 VAR1: |T0+Q.X|:   0.94719787868665406     

     Hotelling iter   1 1.00000000   0.106E+01       0.012      196.178
     Hotelling iter   2 1.00000000   0.380E+00       0.011      197.567
     Hotelling iter   3 1.00000000   0.933E-01       0.012      193.624
     Hotelling iter   4 1.00000000   0.965E-02       0.012      196.040
     Hotelling iter   5 1.00000000   0.150E-03       0.012      193.929
     Hotelling iter   6 1.00000000   0.517E-07       0.012      186.158
     Hotelling iter   7 1.00000000   0.117E-13       0.011      198.749
 Maximum norm of dE/dT:   1.52183810710465367E-003
 Grad orthogonality error:   5.31914950394613679E-005
 Step orthogonality error:   5.46737444272263340E-005
 ALMO SCF LS    12   -362.487213823821   0.000E+00   0.152E-02   0.144E+00    -0.24083     1.145
 VAR1: |B*X|:   0.13188149990067136     
 VAR1: |Q.X|:   0.13188149990067136     
 VAR1: |T0+Q.X|:   0.94720684094818686     

     Hotelling iter   1 1.00000000   0.106E+01       0.012      196.247
     Hotelling iter   2 1.00000000   0.380E+00       0.012      195.925
     Hotelling iter   3 1.00000000   0.933E-01       0.012      196.930
     Hotelling iter   4 1.00000000   0.965E-02       0.012      194.593
     Hotelling iter   5 1.00000000   0.150E-03       0.011      199.436
     Hotelling iter   6 1.00000000   0.516E-07       0.012      196.663
     Hotelling iter   7 1.00000000   0.116E-13       0.012      192.579
 Maximum norm of dE/dT:   7.21289191209127699E-004
 Grad orthogonality error:   2.90079442059579187E-005
 ....updating step direction....
 ....applying preconditioner....
 ....special case 1....
 Dir orthogonality error:   8.75569670057243183E-006
 ....final beta....  0.15040289627183737     
 Step orthogonality error:   1.32064107536184355E-005
 ALMO SCF CG    13   -362.487221963691  -0.901E-04   0.726E-03   0.124E-04     0.84129     1.440
 VAR1: |B*X|:   0.13210618626815632     
 VAR1: |Q.X|:   0.13210618626815632     
 VAR1: |T0+Q.X|:   0.94720409908347103     

     Hotelling iter   1 1.00000000   0.106E+01       0.011      199.828
     Hotelling iter   2 1.00000000   0.380E+00       0.012      193.079
     Hotelling iter   3 1.00000000   0.933E-01       0.012      197.419
     Hotelling iter   4 1.00000000   0.965E-02       0.012      192.189
     Hotelling iter   5 1.00000000   0.150E-03       0.012      195.160
     Hotelling iter   6 1.00000000   0.516E-07       0.012      192.857
     Hotelling iter   7 1.00000000   0.116E-13       0.015      153.168
 Maximum norm of dE/dT:   3.43935405497159145E-004
 Grad orthogonality error:   2.57216223391152831E-005
 ....updating step direction....
 ....applying preconditioner....
 ....special case 1....
 Dir orthogonality error:   5.58743479963730991E-006
 ....final beta....  0.22532747780439741     
 Step orthogonality error:   7.60199598794624017E-006
 ALMO SCF CG    14   -362.487236071197  -0.141E-04   0.345E-03   0.343E-02     0.88335     1.448
 VAR1: |B*X|:   0.13200783100009705     
 VAR1: |Q.X|:   0.13200783100009705     
 VAR1: |T0+Q.X|:   0.94720393664969271     

     Hotelling iter   1 1.00000000   0.106E+01       0.012      197.094
     Hotelling iter   2 1.00000000   0.380E+00       0.011      197.825
     Hotelling iter   3 1.00000000   0.933E-01       0.011      199.762
     Hotelling iter   4 1.00000000   0.965E-02       0.012      194.516
     Hotelling iter   5 1.00000000   0.150E-03       0.012      196.583
     Hotelling iter   6 1.00000000   0.516E-07       0.012      192.167
     Hotelling iter   7 1.00000000   0.116E-13       0.012      196.134
 Maximum norm of dE/dT:   1.16605511929757794E-004
 Grad orthogonality error:   5.20667391209543930E-006
 Step orthogonality error:   7.60286312543083616E-006
 ALMO SCF LS    15   -362.487239512487   0.000E+00   0.117E-03  -0.340E-01     0.06394     1.142
 VAR1: |B*X|:   0.13200071129180299     
 VAR1: |Q.X|:   0.13200071129180299     
 VAR1: |T0+Q.X|:   0.94720392489149063     

     Hotelling iter   1 1.00000000   0.106E+01       0.011      198.685
     Hotelling iter   2 1.00000000   0.380E+00       0.011      198.332
     Hotelling iter   3 1.00000000   0.933E-01       0.012      195.543
     Hotelling iter   4 1.00000000   0.965E-02       0.012      192.876
     Hotelling iter   5 1.00000000   0.150E-03       0.012      192.684
     Hotelling iter   6 1.00000000   0.516E-07       0.013      180.463
     Hotelling iter   7 1.00000000   0.116E-13       0.012      192.256
 Maximum norm of dE/dT:   1.49942747484387452E-004
 Grad orthogonality error:   4.80012368419611009E-006
 ....updating step direction....
 ....applying preconditioner....
 ....special case 1....
 Dir orthogonality error:   2.18026149403529500E-006
 ....final beta....  0.20062895940118808     
 Step orthogonality error:   3.70562860485169643E-006
 ALMO SCF CG    16   -362.487239528239  -0.346E-05   0.151E-03  -0.186E-06     0.99466     1.450
 VAR1: |B*X|:   0.13198756137757681     
 VAR1: |Q.X|:   0.13198756137757681     
 VAR1: |T0+Q.X|:   0.94720699293875588     

     Hotelling iter   1 1.00000000   0.106E+01       0.011      200.398
     Hotelling iter   2 1.00000000   0.380E+00       0.012      197.305
     Hotelling iter   3 1.00000000   0.933E-01       0.012      196.697
     Hotelling iter   4 1.00000000   0.965E-02       0.012      193.407
     Hotelling iter   5 1.00000000   0.150E-03       0.011      197.987
     Hotelling iter   6 1.00000000   0.516E-07       0.012      195.886
     Hotelling iter   7 1.00000000   0.117E-13       0.012      186.534
 Maximum norm of dE/dT:   1.01152807041349950E-004
 Grad orthogonality error:   1.86463065343759398E-006
 Step orthogonality error:   3.70395315059102202E-006
 ALMO SCF LS    17   -362.487240189451   0.000E+00   0.101E-03   0.659E-01    -0.12343     1.143
 VAR1: |B*X|:   0.13198919313866470     
 VAR1: |Q.X|:   0.13198919313866470     
 VAR1: |T0+Q.X|:   0.94720661222751645     

     Hotelling iter   1 1.00000000   0.106E+01       0.012      195.419
     Hotelling iter   2 1.00000000   0.380E+00       0.012      193.509
     Hotelling iter   3 1.00000000   0.933E-01       0.012      194.554
     Hotelling iter   4 1.00000000   0.965E-02       0.012      194.351
     Hotelling iter   5 1.00000000   0.150E-03       0.011      199.477
     Hotelling iter   6 1.00000000   0.516E-07       0.012      181.996
     Hotelling iter   7 1.00000000   0.116E-13       0.012      189.094
 Maximum norm of dE/dT:   6.99944697886403702E-005
 Grad orthogonality error:   2.22871594034608512E-006
 ....updating step direction....
 ....applying preconditioner....
 ....special case 1....
 Dir orthogonality error:   1.02458092913359622E-006
 ....final beta....  0.17171298019645112     
 Step orthogonality error:   1.66063346322317918E-006
 ALMO SCF CG    18   -362.487240202993  -0.675E-06   0.700E-04   0.190E-07     0.91480     1.447
 VAR1: |B*X|:   0.13196809852466532     
 VAR1: |Q.X|:   0.13196809852466532     
 VAR1: |T0+Q.X|:   0.94720789890432699     

     Hotelling iter   1 1.00000000   0.106E+01       0.012      187.418
     Hotelling iter   2 1.00000000   0.380E+00       0.012      186.123
     Hotelling iter   3 1.00000000   0.933E-01       0.011      198.118
     Hotelling iter   4 1.00000000   0.965E-02       0.011      198.928
     Hotelling iter   5 1.00000000   0.150E-03       0.012      197.477
     Hotelling iter   6 1.00000000   0.516E-07       0.012      190.895
     Hotelling iter   7 1.00000000   0.116E-13       0.012      184.482
 Maximum norm of dE/dT:   4.17971553947718046E-005
 Grad orthogonality error:   1.09896197910699362E-006
 ....updating step direction....
 ....applying preconditioner....
 ....special case 1....
 Dir orthogonality error:   5.06895646408426848E-007
 ....final beta....  0.24124064056009378     
 Step orthogonality error:   9.07362667317482011E-007
 ALMO SCF CG    19   -362.487240323340  -0.120E-06   0.418E-04   0.114E-02     0.96054     1.449
 VAR1: |B*X|:   0.13197736564824039     
 VAR1: |Q.X|:   0.13197736564824039     
 VAR1: |T0+Q.X|:   0.94720780090898749     

     Hotelling iter   1 1.00000000   0.106E+01       0.012      194.385
     Hotelling iter   2 1.00000000   0.380E+00       0.011      200.249
     Hotelling iter   3 1.00000000   0.933E-01       0.012      196.154
     Hotelling iter   4 1.00000000   0.965E-02       0.012      195.393
     Hotelling iter   5 1.00000000   0.150E-03       0.012      194.342
     Hotelling iter   6 1.00000000   0.516E-07       0.012      191.820
     Hotelling iter   7 1.00000000   0.117E-13       0.012      189.869
 Maximum norm of dE/dT:   2.31238495022694206E-005
 Grad orthogonality error:   7.36830606547802930E-007
 Step orthogonality error:   9.07141637798851825E-007
 ALMO SCF LS    20   -362.487240352815   0.000E+00   0.231E-04   0.980E-02    -0.02092     1.142
 VAR1: |B*X|:   0.13197716377762603     
 VAR1: |Q.X|:   0.13197716377762603     
 VAR1: |T0+Q.X|:   0.94720780304367136     

     Hotelling iter   1 1.00000000   0.106E+01       0.014      166.661
     Hotelling iter   2 1.00000000   0.380E+00       0.012      189.419
     Hotelling iter   3 1.00000000   0.933E-01       0.012      194.905
     Hotelling iter   4 1.00000000   0.965E-02       0.012      195.205
     Hotelling iter   5 1.00000000   0.150E-03       0.012      194.844
     Hotelling iter   6 1.00000000   0.516E-07       0.012      189.565
     Hotelling iter   7 1.00000000   0.116E-13       0.012      187.073
 Maximum norm of dE/dT:   2.17096406248116266E-005
 Grad orthogonality error:   7.31839867861545918E-007
 ....updating step direction....
 ....applying preconditioner....
 ....special case 1....
 Dir orthogonality error:   2.63898770770491780E-007
 ....final beta....  0.26094850776029377     
 Step orthogonality error:   4.71776496045798596E-007
 ALMO SCF CG    21   -362.487240352830  -0.295E-07   0.217E-04   0.425E-08     0.98659     1.446
 VAR1: |B*X|:   0.13198039988245280     
 VAR1: |Q.X|:   0.13198039988245280     
 VAR1: |T0+Q.X|:   0.94720762481485932     

     Hotelling iter   1 1.00000000   0.106E+01       0.013      176.450
     Hotelling iter   2 1.00000000   0.380E+00       0.012      192.368
     Hotelling iter   3 1.00000000   0.933E-01       0.012      197.349
     Hotelling iter   4 1.00000000   0.965E-02       0.012      195.021
     Hotelling iter   5 1.00000000   0.150E-03       0.012      188.015
     Hotelling iter   6 1.00000000   0.516E-07       0.013      176.118
     Hotelling iter   7 1.00000000   0.116E-13       0.012      193.696
 Maximum norm of dE/dT:   1.08789117915482694E-005
 Grad orthogonality error:   2.51783969227807016E-007
 Step orthogonality error:   4.71803995635124007E-007
 ALMO SCF LS    22   -362.487240360110   0.000E+00   0.109E-04   0.493E-01    -0.10006     1.152
 VAR1: |B*X|:   0.13198007168436374     
 VAR1: |Q.X|:   0.13198007168436374     
 VAR1: |T0+Q.X|:   0.94720764289040349     

     Hotelling iter   1 1.00000000   0.106E+01       0.011      197.898
     Hotelling iter   2 1.00000000   0.380E+00       0.012      194.171
     Hotelling iter   3 1.00000000   0.933E-01       0.012      194.016
     Hotelling iter   4 1.00000000   0.965E-02       0.012      188.582
     Hotelling iter   5 1.00000000   0.150E-03       0.013      171.553
     Hotelling iter   6 1.00000000   0.516E-07       0.012      192.018
     Hotelling iter   7 1.00000000   0.117E-13       0.012      193.701
 Maximum norm of dE/dT:   7.57385932505412474E-006
 Grad orthogonality error:   2.84254139348802027E-007
 ALMO SCF LS    23   -362.487240360204   0.000E+00   0.757E-05   0.493E-01    -0.10006     0.980
 _ENERGY-0:   -2151.4829283928029     
 _ENERGY-D:   -1.4740978875239665     
 _ENERGY-F:   -2152.9570262803268     

 DECOMPOSITION OF THE DELOCALIZATION ENERGY

 ENERGY| Total FORCE_EVAL ( QS ) energy (a.u.):            -2151.482928437007104


 -------------------------------------------------------------------------------
 ----                             MULTIGRID INFO                            ----
 -------------------------------------------------------------------------------
 count for grid        1:        1664426          cutoff [a.u.]          500.00
 count for grid        2:        1514729          cutoff [a.u.]          166.67
 count for grid        3:        1403811          cutoff [a.u.]           55.56
 count for grid        4:        1380773          cutoff [a.u.]           18.52
 count for grid        5:        2634805          cutoff [a.u.]            6.17
 total gridlevel count  :        8598544

 -------------------------------------------------------------------------------
 -                                                                             -
 -                         MESSAGE PASSING PERFORMANCE                         -
 -                                                                             -
 -------------------------------------------------------------------------------

 ROUTINE             CALLS  TOT TIME [s]  AVE VOLUME [Bytes]  PERFORMANCE [MB/s]
 MP_Group                5         0.000
 MP_Bcast               50         0.012            4195123.            17926.84
 MP_Allreduce          213         1.058               7780.                1.57
 MP_Gather               4         0.006               3584.                2.58
 MP_Sync                 5         0.000
 MP_Alltoall           723        24.952            6938255.              201.04
 MP_ISendRecv        19812         0.066              30827.             9196.31
 MP_Wait             24222         4.947
 MP_ISend             3990         0.180             172551.             3828.24
 MP_IRecv             3990         0.152             172416.             4522.74
 -------------------------------------------------------------------------------


 -------------------------------------------------------------------------------
 -                                                                             -
 -                           R E F E R E N C E S                               -
 -                                                                             -
 -------------------------------------------------------------------------------
 
 CP2K version 2.2.268 (Development Version), the CP2K developers group (2011).
 CP2K is freely available from http://cp2k.berlios.de/ .

 VandeVondele, J; Hutter, J. 
 JOURNAL OF CHEMICAL PHYSICS, 127 (11), 114105 (2007). 
 Gaussian basis sets for accurate calculations on molecular systems in
 gas and condensed phases.
 http://dx.doi.org/10.1063/1.2770708


 Krack, M. 
 THEORETICAL CHEMISTRY ACCOUNTS, 114 (1-3), 145-152 (2005). 
 Pseudopotentials for H to Kr optimized for gradient-corrected
 exchange-correlation functionals.
 http://dx.doi.org/10.1007/s00214-005-0655-y


 VandeVondele, J; Krack, M; Mohamed, F; Parrinello, M; Chassaing, T;
 Hutter, J. COMPUTER PHYSICS COMMUNICATIONS, 167 (2), 103-128 (2005). 
 QUICKSTEP: Fast and accurate density functional calculations using a
 mixed Gaussian and plane waves approach.
 http://dx.doi.org/10.1016/j.cpc.2004.12.014


 Frigo, M; Johnson, SG. 
 PROCEEDINGS OF THE IEEE, 93 (2), 216-231 (2005). 
 The design and implementation of FFTW3.
 http://dx.doi.org/10.1109/JPROC.2004.840301


 Hartwigsen, C; Goedecker, S; Hutter, J. 
 PHYSICAL REVIEW B, 58 (7), 3641-3662 (1998). 
 Relativistic separable dual-space Gaussian pseudopotentials from H to Rn.
 http://dx.doi.org/10.1103/PhysRevB.58.3641


 Lippert, G; Hutter, J; Parrinello, M. 
 MOLECULAR PHYSICS, 92 (3), 477-487 (1997). 
 A hybrid Gaussian and plane wave density functional scheme.
 http://dx.doi.org/10.1080/002689797170220


 Goedecker, S; Teter, M; Hutter, J. 
 PHYSICAL REVIEW B, 54 (3), 1703-1710 (1996). 
 Separable dual-space Gaussian pseudopotentials.
 http://dx.doi.org/10.1103/PhysRevB.54.1703


 BECKE, AD. PHYSICAL REVIEW A, 38 (6), 3098-3100 (1988). 
 DENSITY-FUNCTIONAL EXCHANGE-ENERGY APPROXIMATION WITH CORRECT
 ASYMPTOTIC-BEHAVIOR.
 http://dx.doi.org/10.1103/PhysRevA.38.3098


 LEE, CT; YANG, WT; PARR, RG. 
 PHYSICAL REVIEW B, 37 (2), 785-789 (1988). 
 DEVELOPMENT OF THE COLLE-SALVETTI CORRELATION-ENERGY FORMULA INTO A
 FUNCTIONAL OF THE ELECTRON-DENSITY.
 http://dx.doi.org/10.1103/PhysRevB.37.785


 -------------------------------------------------------------------------------
 -                                                                             -
 -                                T I M I N G                                  -
 -                                                                             -
 -------------------------------------------------------------------------------
 SUBROUTINE                       CALLS  ASD         SELF TIME        TOTAL TIME
                                              AVERAGE  MAXIMUM  AVERAGE  MAXIMUM
 CP2K                                 1  1.0    0.033    0.040  336.368  336.416
 qs_energies_scf                      1  2.0    0.000    0.001  335.722  335.782
 almo_entry_scf                       1  3.0    0.000    0.000  331.559  331.618
 almo_scf_main                        1  4.0    0.000    0.000  274.427  274.503
 almo_scf_dm_to_ks                   25  6.0    0.000    0.000  269.356  269.589
 almo_scf_main_block_diagonal         1  5.0    0.000    0.002  238.712  238.783
 qs_ks_update_qs_env                 26  7.0    0.000    0.001  164.145  164.379
 qs_ks_build_kohn_sham_matrix        26  8.0    0.032    0.044  164.115  164.349
 sum_up_and_integrate                26  9.0    0.161    0.202  132.296  132.531
 integrate_v_rspace                  26 10.0  116.056  117.607  132.134  132.392
 qs_rho_update_rho                   26  7.0    0.000    0.000  114.609  114.630
 calculate_rho_elec                  26  8.0   95.329   97.692  114.608  114.630
 almo_scf_main_quenched_almos         2  5.0    0.036    0.061   81.312   81.341
 almo_post_scf                        1  4.0    0.001    0.001   45.637   45.661
 cp_dbcsr_multiply_d               1867  7.4    0.009    0.011   44.805   45.070
 fft_wrap_pw1pw2                    495 10.9    0.015    0.019   36.441   36.917
 fft_wrap_pw1pw2_500                287 11.9    2.156    2.608   34.561   35.025
 fft3d_ps                           495 12.9    9.780   11.808   30.584   31.288
 qs_vxc_create                       26  9.0    0.002    0.002   27.510   27.652
 xc_vxc_pw_create                    26 10.0    0.449    0.533   27.508   27.650
 cp_dbcsr_mult_NS_NR                272  7.7   24.676   25.375   24.683   25.381
 density_rs2pw                       26  9.0    0.680    0.986   14.351   16.727
 xc_rho_set_and_dset_create          26 11.0    1.724    2.194   14.090   14.851
 rs_pw_transfer                     261 10.9    0.008    0.036   11.668   14.263
 almo_scf_t_to_p                     49  6.4    0.001    0.001   13.218   13.510
 distribute_matrix                   52 10.0    8.919   11.515    9.125   11.588
 almo_scf_init                        1  4.0    0.000    0.000   11.493   11.506
 x_to_yz                            182 14.1   10.920   11.232   10.920   11.232
 almo_scf_init_qs                     1  5.0    0.180    0.181   11.186   11.198
 yz_to_x                            157 13.8    9.472   10.658    9.472   10.658
 potential_pw2rs                     26 11.0    0.017    0.019    9.849    9.884
 -------------------------------------------------------------------------------

  **** **** ******  **  PROGRAM ENDED AT                 2012-06-12 21:23:50.526
 ***** ** ***  *** **   PROGRAM RAN ON                                  nid00029
 **    ****   ******    PROGRAM RAN BY                                  root ;-)
 ***** **    ** ** **   PROGRAM PROCESS ID                                 18839
  **** **  *******  **  PROGRAM STOPPED IN /scratch/weisshorn/rustamr/e298-1.304
                                           388
Application 983379 resources: utime ~41633s, stime ~1493s
