
  **** **** ******  **  PROGRAM STARTED AT               2012-06-12 22:04:42.161
 ***** ** ***  *** **   PROGRAM STARTED ON                              nid00029
 **    ****   ******    PROGRAM STARTED BY                              root ;-)
 ***** **    ** ** **   PROGRAM PROCESS ID                                 19402
  **** **  *******  **  PROGRAM STARTED IN /scratch/weisshorn/rustamr/e298-1.304
                                           388

 CP2K| version string:                CP2K version 2.2.268 (Development Version)
 CP2K| is freely available from                          http://cp2k.berlios.de/
 CP2K| Program compiled at                         Sun May 27 15:14:38 CEST 2012
 CP2K| Program compiled on                                                 rosa5
 CP2K| Program compiled for                                    rosa-new-gfortran
 CP2K| Last CVS entry                xas_tp_scf.F/1.101/Wed Jun 29 13:43:33 2011
 CP2K| Input file name                                           bulk.090018.inp

 GLOBAL| Force Environment number                                              1
 GLOBAL| Basis set file name            /users/rustamr/dev/cp2k/tests/QS/BASIS_M
 GLOBAL| Geminal file name                                         BASIS_GEMINAL
 GLOBAL| Potential file name            /users/rustamr/dev/cp2k/tests/QS/GTH_POT
 GLOBAL| MM Potential file name                                     MM_POTENTIAL
 GLOBAL| Coordinate file name                                      __STD_INPUT__
 GLOBAL| Method name                                                        CP2K
 GLOBAL| Project name                                                       bulk
 GLOBAL| Preferred FFT library                                             FFTW3
 GLOBAL| Run type                                                         ENERGY
 GLOBAL| All-to-all communication in single precision                          F
 GLOBAL| FFTs using library dependent lengths                                  F
 GLOBAL| Global print level                                               MEDIUM
 GLOBAL| Total number of message passing processes                           128
 GLOBAL| Number of threads for this process                                    1
 GLOBAL| This output is from process                                           0

 MEMORY| system memory details [Kb]
 MEMORY|                        rank 0           min           max       average
 MEMORY| MemTotal             33082792      33082792      33082792      33082792
 MEMORY| MemFree              30722516      30717956      30723532      30721157
 MEMORY| Buffers                     0             0             0             0
 MEMORY| Cached                 109920        109148        109928        109636
 MEMORY| Slab                   192448        192212        192884        192571
 MEMORY| SReclaimable             4484          4364          4632          4480
 MEMORY| MemLikelyFree        30836920      30831548      30837952      30835273

 DBCSR| Multiplication driver                                                SMM
 DBCSR| Multiplication stack size                                           1000
 DBCSR| Use subcommunicators                                                   F
 DBCSR| Use MPI combined types                                                 F
 DBCSR| Use MPI memory allocation                                              T


 *** Fundamental physical constants (SI units) ***

 *** Literature: B. J. Mohr and B. N. Taylor,
 ***             CODATA recommended values of the fundamental physical
 ***             constants: 2006, Web Version 5.1
 ***             http://physics.nist.gov/constants

 Speed of light in vacuum [m/s]                             2.99792458000000E+08
 Magnetic constant or permeability of vacuum [N/A**2]       1.25663706143592E-06
 Electric constant or permittivity of vacuum [F/m]          8.85418781762039E-12
 Planck constant (h) [J*s]                                  6.62606896000000E-34
 Planck constant (h-bar) [J*s]                              1.05457162825177E-34
 Elementary charge [C]                                      1.60217648700000E-19
 Electron mass [kg]                                         9.10938215000000E-31
 Electron g factor [ ]                                     -2.00231930436220E+00
 Proton mass [kg]                                           1.67262163700000E-27
 Fine-structure constant                                    7.29735253760000E-03
 Rydberg constant [1/m]                                     1.09737315685270E+07
 Avogrado constant [1/mol]                                  6.02214179000000E+23
 Boltzmann constant [J/K]                                   1.38065040000000E-23
 Atomic mass unit [kg]                                      1.66053878200000E-27
 Bohr radius [m]                                            5.29177208590000E-11

 *** Conversion factors ***

 [u] -> [a.u.]                                              1.82288848426455E+03
 [Angstrom] -> [Bohr] = [a.u.]                              1.88972613288564E+00
 [a.u.] = [Bohr] -> [Angstrom]                              5.29177208590000E-01
 [a.u.] -> [s]                                              2.41888432650478E-17
 [a.u.] -> [fs]                                             2.41888432650478E-02
 [a.u.] -> [J]                                              4.35974393937059E-18
 [a.u.] -> [K]                                              3.15774647902944E+05
 [a.u.] -> [kJ/mol]                                         2.62549961709828E+03
 [a.u.] -> [kcal/mol]                                       6.27509468713739E+02
 [a.u.] -> [Pa]                                             2.94210107994716E+13
 [a.u.] -> [bar]                                            2.94210107994716E+08
 [a.u.] -> [atm]                                            2.90362800883016E+08
 [a.u.] -> [eV]                                             2.72113838565563E+01
 [a.u.] -> [Hz]                                             6.57968392072181E+15
 [a.u.] -> [1/cm] (wave numbers)                            2.19474631370540E+05
 [a.u./Bohr**2] -> [1/cm]                                   5.14048714338585E+03
 

 CELL| Volume [angstrom^3]:                                             3749.654
 CELL| Vector a [angstrom]:      15.536     0.000     0.000    |a| =      15.536
 CELL| Vector b [angstrom]:       0.000    15.536     0.000    |b| =      15.536
 CELL| Vector c [angstrom]:       0.000     0.000    15.536    |c| =      15.536
 CELL| Angle (b,c), alpha [degree]:                                       90.000
 CELL| Angle (a,c), beta  [degree]:                                       90.000
 CELL| Angle (a,b), gamma [degree]:                                       90.000

 CELL_REF| Volume [angstrom^3]:                                         3749.654
 CELL_REF| Vector a [angstrom    15.536     0.000     0.000    |a| =      15.536
 CELL_REF| Vector b [angstrom     0.000    15.536     0.000    |b| =      15.536
 CELL_REF| Vector c [angstrom     0.000     0.000    15.536    |c| =      15.536
 CELL_REF| Angle (b,c), alpha [degree]:                                   90.000
 CELL_REF| Angle (a,c), beta  [degree]:                                   90.000
 CELL_REF| Angle (a,b), gamma [degree]:                                   90.000

 CELL_TOP| Volume [angstrom^3]:                                         3749.654
 CELL_TOP| Vector a [angstrom    15.536     0.000     0.000    |a| =      15.536
 CELL_TOP| Vector b [angstrom     0.000    15.536     0.000    |b| =      15.536
 CELL_TOP| Vector c [angstrom     0.000     0.000    15.536    |c| =      15.536
 CELL_TOP| Angle (b,c), alpha [degree]:                                   90.000
 CELL_TOP| Angle (a,c), beta  [degree]:                                   90.000
 CELL_TOP| Angle (a,b), gamma [degree]:                                   90.000

 GENERATE|  Preliminary Number of Bonds generated:                           250
 GENERATE|  Achieved consistency in connectivity generation.
 GENERATE|  Number of Bonds generated:                                       250
 REORDER |  
 REORDER |  Reordering Molecules. The Reordering of molecules will override all
 REORDER |  information regarding molecule names and residue names.
 REORDER |  New ones will be provided on the basis of the connectivity!
 REORDER |  Number of unique molecules found:      1.
 REORDER |  

 GENERATE|  Preliminary Number of Bonds generated:                           250
 GENERATE|  Achieved consistency in connectivity generation.
 GENERATE|  Number of Bonds generated:                                       250
 GENERATE|  Preliminary Number of Bends generated:                           125
 GENERATE|  Number of Bends generated:                                       125
 GENERATE|  Number of UB generated:                                          125
 GENERATE|  Preliminary Number of Torsions generated:                          0
 GENERATE|  Number of Torsions generated:                                      0
 GENERATE|  Number of Impropers generated:                                     0
 GENERATE|  Number of 1-4 interactions generated:                              0

 *******************************************************************************
 *******************************************************************************
 **                                                                           **
 **     #####                         ##              ##                      **
 **    ##   ##            ##          ##              ##                      **
 **   ##     ##                       ##            ######                    **
 **   ##     ##  ##   ##  ##   #####  ##  ##   ####   ##    #####    #####    **
 **   ##     ##  ##   ##  ##  ##      ## ##   ##      ##   ##   ##  ##   ##   **
 **   ##  ## ##  ##   ##  ##  ##      ####     ###    ##   ######   ######    **
 **    ##  ###   ##   ##  ##  ##      ## ##      ##   ##   ##       ##        **
 **     #######   #####   ##   #####  ##  ##  ####    ##    #####   ##        **
 **           ##                                                    ##        **
 **                                                                           **
 **                                                ... make the atoms dance   **
 **                                                                           **
 **            Copyright (C) by CP2K Developers Group (2000 - 2011)           **
 **                                                                           **
 *******************************************************************************

 DFT| Spin restricted Kohn-Sham (RKS) calculation                            RKS
 DFT| Multiplicity                                                             1
 DFT| Number of spin states                                                    1
 DFT| Charge                                                                   0
 DFT| Self-interaction correction (SIC)                                       NO
 DFT| Cutoffs: density                                              1.000000E-10
 DFT|          gradient                                             1.000000E-10
 DFT|          tau                                                  1.000000E-10
 DFT|          cutoff_smoothing_range                               0.000000E+00
 DFT| XC density smoothing                                                  NONE
 DFT| XC derivatives                                                          PW
 FUNCTIONAL| ROUTINE=NEW
 FUNCTIONAL| BECKE88:
 FUNCTIONAL| A. Becke, Phys. Rev. A 38, 3098 (1988) {LDA version}
 FUNCTIONAL| LYP:
 FUNCTIONAL| C. Lee, W. Yang, R.G. Parr, Phys. Rev. B, 37, 785 (1988) {LDA versi
 FUNCTIONAL| on}

 QS| Method:                                                                 GPW
 QS| Density plane wave grid type                        NON-SPHERICAL FULLSPACE
 QS| Number of grid levels:                                                    5
 QS| Density cutoff [a.u.]:                                                500.0
 QS| Multi grid cutoff [a.u.]: 1) grid level                               500.0
 QS|                           2) grid level                               166.7
 QS|                           3) grid level                                55.6
 QS|                           4) grid level                                18.5
 QS|                           5) grid level                                 6.2
 QS| Grid level progression factor:                                          3.0
 QS| Relative density cutoff [a.u.]:                                        15.0
 QS| Consistent realspace mapping and integration 
 QS| Interaction thresholds: eps_pgf_orb:                                1.0E-05
 QS|                         eps_filter_matrix:                          0.0E+00
 QS|                         eps_core_charge:                            1.0E-12
 QS|                         eps_rho_gspace:                             1.0E-10
 QS|                         eps_rho_rspace:                             1.0E-10
 QS|                         eps_gvg_rspace:                             1.0E-05
 QS|                         eps_ppl:                                    1.0E-02
 QS|                         eps_ppnl:                                   1.0E-07


 ATOMIC KIND INFORMATION

  1. Atomic kind: O                                     Number of atoms:     125

     Orbital basis set information for                          TZV2P-MOLOPT-GTH

       Number of orbital shell sets:                                           1
       Number of orbital shells:                                               8
       Number of primitive Cartesian functions:                                7
       Number of Cartesian basis functions:                                   24
       Number of spherical basis functions:                                   22

       Normalised Cartesian orbitals:

                        Set   Shell   Orbital            Exponent    Coefficient

                          1       1    2s               12.015955      -0.284499
                                                         5.108150      -0.322498
                                                         2.048398       0.148191
                                                         0.832382       0.295475
                                                         0.352316       0.150829
                                                         0.142977       0.015788
                                                         0.046761      -0.000019

                          1       2    3s               12.015955       0.725622
                                                         5.108150       0.644384
                                                         2.048398      -0.157350
                                                         0.832382      -0.853528
                                                         0.352316       0.146068
                                                         0.142977       0.153978
                                                         0.046761       0.000658

                          1       3    4s               12.015955       1.228006
                                                         5.108150       1.271453
                                                         2.048398      -0.537390
                                                         0.832382      -1.759282
                                                         0.352316       1.533697
                                                         0.142977      -0.562509
                                                         0.046761       0.081954

                          1       4    3px              12.015955       1.192141
                                                         5.108150       1.354170
                                                         2.048398       0.897267
                                                         0.832382       0.408839
                                                         0.352316       0.116648
                                                         0.142977       0.022184
                                                         0.046761       0.000308
                          1       4    3py              12.015955       1.192141
                                                         5.108150       1.354170
                                                         2.048398       0.897267
                                                         0.832382       0.408839
                                                         0.352316       0.116648
                                                         0.142977       0.022184
                                                         0.046761       0.000308
                          1       4    3pz              12.015955       1.192141
                                                         5.108150       1.354170
                                                         2.048398       0.897267
                                                         0.832382       0.408839
                                                         0.352316       0.116648
                                                         0.142977       0.022184
                                                         0.046761       0.000308

                          1       5    4px              12.015955      -1.062381
                                                         5.108150      -1.285791
                                                         2.048398      -0.727000
                                                         0.832382      -0.522764
                                                         0.352316       0.182681
                                                         0.142977       0.087560
                                                         0.046761       0.000981
                          1       5    4py              12.015955      -1.062381
                                                         5.108150      -1.285791
                                                         2.048398      -0.727000
                                                         0.832382      -0.522764
                                                         0.352316       0.182681
                                                         0.142977       0.087560
                                                         0.046761       0.000981
                          1       5    4pz              12.015955      -1.062381
                                                         5.108150      -1.285791
                                                         2.048398      -0.727000
                                                         0.832382      -0.522764
                                                         0.352316       0.182681
                                                         0.142977       0.087560
                                                         0.046761       0.000981

                          1       6    5px              12.015955      -0.063722
                                                         5.108150       0.363638
                                                         2.048398       0.015152
                                                         0.832382      -0.083580
                                                         0.352316       0.692078
                                                         0.142977      -0.184312
                                                         0.046761       0.007664
                          1       6    5py              12.015955      -0.063722
                                                         5.108150       0.363638
                                                         2.048398       0.015152
                                                         0.832382      -0.083580
                                                         0.352316       0.692078
                                                         0.142977      -0.184312
                                                         0.046761       0.007664
                          1       6    5pz              12.015955      -0.063722
                                                         5.108150       0.363638
                                                         2.048398       0.015152
                                                         0.832382      -0.083580
                                                         0.352316       0.692078
                                                         0.142977      -0.184312
                                                         0.046761       0.007664

                          1       7    4dx2             12.015955       1.125955
                                                         5.108150       1.160468
                                                         2.048398       0.999335
                                                         0.832382       0.756334
                                                         0.352316       0.048604
                                                         0.142977       0.010378
                                                         0.046761      -0.000027
                          1       7    4dxy             12.015955       1.950212
                                                         5.108150       2.009990
                                                         2.048398       1.730899
                                                         0.832382       1.310009
                                                         0.352316       0.084185
                                                         0.142977       0.017974
                                                         0.046761      -0.000046
                          1       7    4dxz             12.015955       1.950212
                                                         5.108150       2.009990
                                                         2.048398       1.730899
                                                         0.832382       1.310009
                                                         0.352316       0.084185
                                                         0.142977       0.017974
                                                         0.046761      -0.000046
                          1       7    4dy2             12.015955       1.125955
                                                         5.108150       1.160468
                                                         2.048398       0.999335
                                                         0.832382       0.756334
                                                         0.352316       0.048604
                                                         0.142977       0.010378
                                                         0.046761      -0.000027
                          1       7    4dyz             12.015955       1.950212
                                                         5.108150       2.009990
                                                         2.048398       1.730899
                                                         0.832382       1.310009
                                                         0.352316       0.084185
                                                         0.142977       0.017974
                                                         0.046761      -0.000046
                          1       7    4dz2             12.015955       1.125955
                                                         5.108150       1.160468
                                                         2.048398       0.999335
                                                         0.832382       0.756334
                                                         0.352316       0.048604
                                                         0.142977       0.010378
                                                         0.046761      -0.000027

                          1       8    5dx2             12.015955      -2.135425
                                                         5.108150       0.581743
                                                         2.048398      -1.302492
                                                         0.832382       0.098118
                                                         0.352316       0.292085
                                                         0.142977      -0.022029
                                                         0.046761      -0.003795
                          1       8    5dxy             12.015955      -3.698665
                                                         5.108150       1.007608
                                                         2.048398      -2.255983
                                                         0.832382       0.169945
                                                         0.352316       0.505906
                                                         0.142977      -0.038155
                                                         0.046761      -0.006574
                          1       8    5dxz             12.015955      -3.698665
                                                         5.108150       1.007608
                                                         2.048398      -2.255983
                                                         0.832382       0.169945
                                                         0.352316       0.505906
                                                         0.142977      -0.038155
                                                         0.046761      -0.006574
                          1       8    5dy2             12.015955      -2.135425
                                                         5.108150       0.581743
                                                         2.048398      -1.302492
                                                         0.832382       0.098118
                                                         0.352316       0.292085
                                                         0.142977      -0.022029
                                                         0.046761      -0.003795
                          1       8    5dyz             12.015955      -3.698665
                                                         5.108150       1.007608
                                                         2.048398      -2.255983
                                                         0.832382       0.169945
                                                         0.352316       0.505906
                                                         0.142977      -0.038155
                                                         0.046761      -0.006574
                          1       8    5dz2             12.015955      -2.135425
                                                         5.108150       0.581743
                                                         2.048398      -1.302492
                                                         0.832382       0.098118
                                                         0.352316       0.292085
                                                         0.142977      -0.022029
                                                         0.046761      -0.003795

     Potential information for                                       GTH-BLYP-q6

       Description:                       Goedecker-Teter-Hutter pseudopotential
                                           Goedecker et al., PRB 54, 1703 (1996)
                                          Hartwigsen et al., PRB 58, 3641 (1998)
                                                      Krack, TCA 114, 145 (2005)

       Gaussian exponent of the core charge distribution:               8.438331
       Electronic configuration (s p d ...):                               2   4

       Parameters of the local part of the GTH pseudopotential:

                          rloc        C1          C2          C3          C4
                        0.243420  -16.991892    2.566142

       Parameters of the non-local part of the GTH pseudopotential:

                   l      r(l)      h(i,j,l)

                   0    0.220831   18.388851
                   1    0.217201

  2. Atomic kind: H                                     Number of atoms:     250

     Orbital basis set information for                          TZV2P-MOLOPT-GTH

       Number of orbital shell sets:                                           1
       Number of orbital shells:                                               5
       Number of primitive Cartesian functions:                                7
       Number of Cartesian basis functions:                                    9
       Number of spherical basis functions:                                    9

       Normalised Cartesian orbitals:

                        Set   Shell   Orbital            Exponent    Coefficient

                          1       1    2s               11.478000       0.129129
                                                         3.700759       0.177012
                                                         1.446884       0.141285
                                                         0.716815       0.245670
                                                         0.247919       0.094768
                                                         0.066918       0.004062
                                                         0.021708      -0.000053

                          1       2    3s               11.478000      -0.079256
                                                         3.700759      -0.152992
                                                         1.446884       0.015066
                                                         0.716815      -0.331234
                                                         0.247919       0.210690
                                                         0.066918       0.058630
                                                         0.021708      -0.003429

                          1       3    4s               11.478000      -0.246880
                                                         3.700759       0.023016
                                                         1.446884      -1.109374
                                                         0.716815       1.524652
                                                         0.247919      -0.227968
                                                         0.066918      -0.037343
                                                         0.021708       0.005696

                          1       4    3px              11.478000       0.325290
                                                         3.700759       0.187466
                                                         1.446884       0.443300
                                                         0.716815       0.267738
                                                         0.247919       0.088285
                                                         0.066918       0.019092
                                                         0.021708       0.000629
                          1       4    3py              11.478000       0.325290
                                                         3.700759       0.187466
                                                         1.446884       0.443300
                                                         0.716815       0.267738
                                                         0.247919       0.088285
                                                         0.066918       0.019092
                                                         0.021708       0.000629
                          1       4    3pz              11.478000       0.325290
                                                         3.700759       0.187466
                                                         1.446884       0.443300
                                                         0.716815       0.267738
                                                         0.247919       0.088285
                                                         0.066918       0.019092
                                                         0.021708       0.000629

                          1       5    4px              11.478000      -1.727188
                                                         3.700759      -0.598393
                                                         1.446884      -3.813128
                                                         0.716815       1.901151
                                                         0.247919      -0.262425
                                                         0.066918       0.006339
                                                         0.021708       0.007345
                          1       5    4py              11.478000      -1.727188
                                                         3.700759      -0.598393
                                                         1.446884      -3.813128
                                                         0.716815       1.901151
                                                         0.247919      -0.262425
                                                         0.066918       0.006339
                                                         0.021708       0.007345
                          1       5    4pz              11.478000      -1.727188
                                                         3.700759      -0.598393
                                                         1.446884      -3.813128
                                                         0.716815       1.901151
                                                         0.247919      -0.262425
                                                         0.066918       0.006339
                                                         0.021708       0.007345

     Potential information for                                       GTH-BLYP-q1

       Description:                       Goedecker-Teter-Hutter pseudopotential
                                           Goedecker et al., PRB 54, 1703 (1996)
                                          Hartwigsen et al., PRB 58, 3641 (1998)
                                                      Krack, TCA 114, 145 (2005)

       Gaussian exponent of the core charge distribution:              12.500000
       Electronic configuration (s p d ...):                                   1

       Parameters of the local part of the GTH pseudopotential:

                          rloc        C1          C2          C3          C4
                        0.200000   -4.195961    0.730498


 MOLECULE KIND INFORMATION

     1. Molecule kind: H2O                       Number of atoms:              3
                     Atom         Atomic kind name
                        1                        O
                        2                        H
                        3                        H

        The name was automatically generated: F
        Number of molecules:    125
        Molecule list:                1         2         3         4         5
                                      6         7         8         9        10
                                     11        12        13        14        15
                                     16        17        18        19        20
                                     21        22        23        24        25
                                     26        27        28        29        30
                                     31        32        33        34        35
                                     36        37        38        39        40
                                     41        42        43        44        45
                                     46        47        48        49        50
                                     51        52        53        54        55
                                     56        57        58        59        60
                                     61        62        63        64        65
                                     66        67        68        69        70
                                     71        72        73        74        75
                                     76        77        78        79        80
                                     81        82        83        84        85
                                     86        87        88        89        90
                                     91        92        93        94        95
                                     96        97        98        99       100
                                    101       102       103       104       105
                                    106       107       108       109       110
                                    111       112       113       114       115
                                    116       117       118       119       120
                                    121       122       123       124       125
        Number of bonds:            2
        Number of bends:            1
        Number of Urey-Bradley:     1


 MOLECULE KIND SET INFORMATION               Total Number of bonds:          250
                                             Total Number of bends:          125
                                             Total Number of Urey-Bradley:   125
                                             Total Number of torsions:         0
                                             Total Number of improper:         0
                                              Total Number of opbends:         0


 TOTAL NUMBERS AND MAXIMUM NUMBERS

  Total number of            - Atomic kinds:                                   2
                             - Atoms:                                        375
                             - Shell sets:                                   375
                             - Shells:                                      2250
                             - Primitive Cartesian functions:               2625
                             - Cartesian basis functions:                   5250
                             - Spherical basis functions:                   5000

  Maximum angular momentum of- Orbital basis functions:                        2
                             - Local part of the GTH pseudopotential:          2
                             - Non-local part of the GTH pseudopotential:      0


 MODULE QUICKSTEP:  ATOMIC COORDINATES IN angstrom

  Atom  Kind  Element       X           Y           Z          Z(eff)       Mass

       1     1 O    8    2.237459    1.331407    1.072959      6.00      15.9994
       2     2 H    1    1.570882    1.625338    1.768364      1.00       1.0079
       3     2 H    1    1.638497    1.126341    0.291990      1.00       1.0079
       4     1 O    8    7.776980    3.079988   15.481019      6.00      15.9994
       5     2 H    1    7.776409    2.308286   16.047676      1.00       1.0079
       6     2 H    1    8.616944    3.289169   15.022002      1.00       1.0079
       7     1 O    8    2.968335    6.007979   10.836081      6.00      15.9994
       8     2 H    1    3.450682    6.655487   10.291786      1.00       1.0079
       9     2 H    1    3.544608    5.694630   11.587685      1.00       1.0079
      10     1 O    8    4.502388   15.295204   14.149851      6.00      15.9994
      11     2 H    1    4.809152   16.208545   14.345864      1.00       1.0079
      12     2 H    1    3.485127   15.238789   14.240125      1.00       1.0079
      13     1 O    8    7.885823    8.982999    5.065215      6.00      15.9994
      14     2 H    1    8.813480    9.046045    4.789252      1.00       1.0079
      15     2 H    1    7.906336    9.460096    5.916845      1.00       1.0079
      16     1 O    8    1.792721    4.352383    8.219072      6.00      15.9994
      17     2 H    1    0.915177    4.353970    7.751364      1.00       1.0079
      18     2 H    1    1.975420    5.284271    8.280564      1.00       1.0079
      19     1 O    8    4.553295    6.278745    6.288070      6.00      15.9994
      20     2 H    1    4.981526    5.545444    5.994368      1.00       1.0079
      21     2 H    1    4.981400    7.051696    5.804908      1.00       1.0079
      22     1 O    8    6.423530   10.301168    3.150336      6.00      15.9994
      23     2 H    1    5.948922   10.945029    3.806190      1.00       1.0079
      24     2 H    1    7.135947    9.729066    3.608639      1.00       1.0079
      25     1 O    8    5.690060    2.773742   13.508103      6.00      15.9994
      26     2 H    1    5.030783    2.889475   14.220389      1.00       1.0079
      27     2 H    1    6.462747    2.928318   14.074448      1.00       1.0079
      28     1 O    8   14.070867    3.260197    8.775943      6.00      15.9994
      29     2 H    1   13.415613    2.638895    9.167724      1.00       1.0079
      30     2 H    1   14.680864    3.490150    9.515464      1.00       1.0079
      31     1 O    8   14.460427   15.216372    3.956812      6.00      15.9994
      32     2 H    1   13.546992   15.126966    4.300750      1.00       1.0079
      33     2 H    1   14.453457   15.336057    2.957164      1.00       1.0079
      34     1 O    8    7.394415   12.639007   14.836921      6.00      15.9994
      35     2 H    1    7.674194   11.901268   14.293996      1.00       1.0079
      36     2 H    1    6.417938   12.740568   14.946457      1.00       1.0079
      37     1 O    8    6.423797    4.653129    9.368980      6.00      15.9994
      38     2 H    1    5.537517    4.252351    9.086773      1.00       1.0079
      39     2 H    1    6.243409    5.420308    9.946409      1.00       1.0079
      40     1 O    8   12.993571   13.346197    0.287040      6.00      15.9994
      41     2 H    1   13.292284   14.142942    0.787834      1.00       1.0079
      42     2 H    1   12.802536   12.578537    0.907294      1.00       1.0079
      43     1 O    8   10.256926    5.389812    8.937231      6.00      15.9994
      44     2 H    1   10.819602    5.719455    8.195192      1.00       1.0079
      45     2 H    1    9.842504    4.583610    8.641360      1.00       1.0079
      46     1 O    8    4.065860   12.934954    3.484043      6.00      15.9994
      47     2 H    1    3.756641   12.420674    4.231569      1.00       1.0079
      48     2 H    1    3.716743   12.490088    2.688596      1.00       1.0079
      49     1 O    8    8.529766    6.932680    7.444127      6.00      15.9994
      50     2 H    1    8.886057    6.154441    8.036824      1.00       1.0079
      51     2 H    1    8.868478    6.761211    6.586645      1.00       1.0079
      52     1 O    8   11.118217   11.466490    8.875469      6.00      15.9994
      53     2 H    1   10.176763   11.108330    8.889890      1.00       1.0079
      54     2 H    1   11.218251   12.195409    9.535660      1.00       1.0079
      55     1 O    8    0.383106    5.619902   13.715799      6.00      15.9994
      56     2 H    1    0.213134    5.765068   14.700418      1.00       1.0079
      57     2 H    1   -0.349189    4.920844   13.521274      1.00       1.0079
      58     1 O    8   13.361919    3.745559    0.650884      6.00      15.9994
      59     2 H    1   13.385472    3.590387    1.650685      1.00       1.0079
      60     2 H    1   14.230377    4.256141    0.544664      1.00       1.0079
      61     1 O    8   10.820926   11.380745   13.058286      6.00      15.9994
      62     2 H    1   11.538843   10.723592   13.048424      1.00       1.0079
      63     2 H    1   11.041216   12.047247   12.317744      1.00       1.0079
      64     1 O    8    3.449506    1.005768    9.584147      6.00      15.9994
      65     2 H    1    3.891328    1.862551    9.529118      1.00       1.0079
      66     2 H    1    3.987786    0.433447    8.963595      1.00       1.0079
      67     1 O    8    5.258204   10.373781   13.278491      6.00      15.9994
      68     2 H    1    6.209917   10.377026   13.610610      1.00       1.0079
      69     2 H    1    4.907125    9.480933   13.409793      1.00       1.0079
      70     1 O    8    0.209844    3.884831    5.893030      6.00      15.9994
      71     2 H    1    0.958691    3.989183    5.298778      1.00       1.0079
      72     2 H    1   -0.004543    2.920719    6.005645      1.00       1.0079
      73     1 O    8   14.917246   11.852319   10.543818      6.00      15.9994
      74     2 H    1   14.463870   11.119374   10.973966      1.00       1.0079
      75     2 H    1   15.468642   12.144313   11.317936      1.00       1.0079
      76     1 O    8    7.908861    2.723225    5.319243      6.00      15.9994
      77     2 H    1    8.741722    2.901327    4.873945      1.00       1.0079
      78     2 H    1    7.409017    3.169536    4.590175      1.00       1.0079
      79     1 O    8    4.937767   14.568861   11.250906      6.00      15.9994
      80     2 H    1    5.107873   14.904520   12.168202      1.00       1.0079
      81     2 H    1    4.346670   15.270741   10.885731      1.00       1.0079
      82     1 O    8    2.356482   13.065049    9.339043      6.00      15.9994
      83     2 H    1    2.518016   14.044086    9.288858      1.00       1.0079
      84     2 H    1    1.743132   12.796623    8.554748      1.00       1.0079
      85     1 O    8   11.364705    5.754188    0.724693      6.00      15.9994
      86     2 H    1   12.133866    5.128190    0.673515      1.00       1.0079
      87     2 H    1   11.635262    6.398186    0.016187      1.00       1.0079
      88     1 O    8    3.085880   11.395550    1.187918      6.00      15.9994
      89     2 H    1    3.425262   10.477200    1.039815      1.00       1.0079
      90     2 H    1    3.604206   11.970976    0.572977      1.00       1.0079
      91     1 O    8    5.140666    5.476550   12.513025      6.00      15.9994
      92     2 H    1    5.538047    4.688148   12.951241      1.00       1.0079
      93     2 H    1    5.925510    5.914337   11.991721      1.00       1.0079
      94     1 O    8    8.277445    3.851566    7.829284      6.00      15.9994
      95     2 H    1    8.021981    3.921984    6.847281      1.00       1.0079
      96     2 H    1    7.535882    4.357506    8.229560      1.00       1.0079
      97     1 O    8    2.800694    3.922746    4.019503      6.00      15.9994
      98     2 H    1    2.430639    4.746917    4.431210      1.00       1.0079
      99     2 H    1    2.923779    4.292706    3.110438      1.00       1.0079
     100     1 O    8    8.521332    9.691830    8.701439      6.00      15.9994
     101     2 H    1    7.577302    9.768893    8.851684      1.00       1.0079
     102     2 H    1    8.601274    8.815423    8.155338      1.00       1.0079
     103     1 O    8    9.868337    4.672787   14.215073      6.00      15.9994
     104     2 H    1   10.223658    5.065196   15.025887      1.00       1.0079
     105     2 H    1   10.384978    3.825750   14.202884      1.00       1.0079
     106     1 O    8    1.653992    9.903879    9.457393      6.00      15.9994
     107     2 H    1    1.040446   10.704996    9.594088      1.00       1.0079
     108     2 H    1    2.421036   10.116417   10.078797      1.00       1.0079
     109     1 O    8    8.104336   15.097578   14.003840      6.00      15.9994
     110     2 H    1    9.067798   14.912899   14.030274      1.00       1.0079
     111     2 H    1    7.724374   14.270638   14.290061      1.00       1.0079
     112     1 O    8    9.291209   14.322740    5.578758      6.00      15.9994
     113     2 H    1    8.446370   14.818719    5.712241      1.00       1.0079
     114     2 H    1    9.341262   14.299094    4.548289      1.00       1.0079
     115     1 O    8   14.259604    7.705546   10.567021      6.00      15.9994
     116     2 H    1   13.923065    6.821725   10.826214      1.00       1.0079
     117     2 H    1   13.506540    8.176197   10.187943      1.00       1.0079
     118     1 O    8    4.363590   11.106180    5.425153      6.00      15.9994
     119     2 H    1    3.464034   10.918941    5.816691      1.00       1.0079
     120     2 H    1    4.779768   11.600201    6.125875      1.00       1.0079
     121     1 O    8    1.108021    1.842475    3.726550      6.00      15.9994
     122     2 H    1    1.836663    2.538310    3.835140      1.00       1.0079
     123     2 H    1    1.565435    0.988523    3.858474      1.00       1.0079
     124     1 O    8   11.854048   11.916510    4.261198      6.00      15.9994
     125     2 H    1   12.603860   11.573212    3.643340      1.00       1.0079
     126     2 H    1   12.358777   12.227955    5.055304      1.00       1.0079
     127     1 O    8    9.561931    1.750468    8.715823      6.00      15.9994
     128     2 H    1    9.052016    2.580648    8.334859      1.00       1.0079
     129     2 H    1    8.887321    1.083844    8.792004      1.00       1.0079
     130     1 O    8    2.691074    5.139788    1.252169      6.00      15.9994
     131     2 H    1    3.105785    4.576814    0.570136      1.00       1.0079
     132     2 H    1    2.657438    6.065642    0.955574      1.00       1.0079
     133     1 O    8   13.897852   14.263304    9.255439      6.00      15.9994
     134     2 H    1   14.275940   13.361968    9.675213      1.00       1.0079
     135     2 H    1   14.594858   14.909544    9.515237      1.00       1.0079
     136     1 O    8   10.064384    8.343995   10.690343      6.00      15.9994
     137     2 H    1   10.420729    7.569662   10.148901      1.00       1.0079
     138     2 H    1    9.559298    8.848638    9.973903      1.00       1.0079
     139     1 O    8    0.377506   12.731049    0.238846      6.00      15.9994
     140     2 H    1    0.431592   11.971514    0.834053      1.00       1.0079
     141     2 H    1   -0.601003   12.864111    0.264762      1.00       1.0079
     142     1 O    8   12.218837    8.779855    0.797236      6.00      15.9994
     143     2 H    1   11.356951    9.247042    1.038330      1.00       1.0079
     144     2 H    1   12.333738    8.906518   -0.161037      1.00       1.0079
     145     1 O    8   13.922303    2.948949    3.108085      6.00      15.9994
     146     2 H    1   14.826033    2.630769    3.401682      1.00       1.0079
     147     2 H    1   13.570082    3.402798    3.925073      1.00       1.0079
     148     1 O    8    8.727406   14.215044   11.359640      6.00      15.9994
     149     2 H    1    8.382666   14.804638   12.077531      1.00       1.0079
     150     2 H    1    8.076390   13.556110   11.254377      1.00       1.0079
     151     1 O    8   13.602127   11.214872    2.198018      6.00      15.9994
     152     2 H    1   14.288038   10.935776    2.872702      1.00       1.0079
     153     2 H    1   13.448216   10.491277    1.611334      1.00       1.0079
     154     1 O    8    3.428317    8.393748    0.764838      6.00      15.9994
     155     2 H    1    3.807940    7.860665    1.519748      1.00       1.0079
     156     2 H    1    4.016851    8.376092    0.019344      1.00       1.0079
     157     1 O    8    0.884117    7.273811    8.614449      6.00      15.9994
     158     2 H    1    0.028702    7.404270    9.074780      1.00       1.0079
     159     2 H    1    1.225153    8.168276    8.899406      1.00       1.0079
     160     1 O    8    8.102586   11.782549    1.760590      6.00      15.9994
     161     2 H    1    7.408222   11.333816    2.349572      1.00       1.0079
     162     2 H    1    7.846611   11.654069    0.752611      1.00       1.0079
     163     1 O    8    9.589354    6.003174    5.120202      6.00      15.9994
     164     2 H    1    9.528342    6.514684    4.318616      1.00       1.0079
     165     2 H    1    9.784709    5.130472    4.727347      1.00       1.0079
     166     1 O    8    0.769914    8.902799    0.076642      6.00      15.9994
     167     2 H    1    0.023678    8.805306    0.775151      1.00       1.0079
     168     2 H    1    1.642775    8.580026    0.419042      1.00       1.0079
     169     1 O    8   10.701729   14.439528   14.172909      6.00      15.9994
     170     2 H    1   10.747203   13.470235   14.064420      1.00       1.0079
     171     2 H    1   11.560254   14.633806   14.565039      1.00       1.0079
     172     1 O    8    8.089735   11.969450    5.688582      6.00      15.9994
     173     2 H    1    8.675179   12.765520    5.880757      1.00       1.0079
     174     2 H    1    7.468206   12.294762    4.982130      1.00       1.0079
     175     1 O    8   13.206667    8.583380    7.198973      6.00      15.9994
     176     2 H    1   12.621483    7.817920    7.142064      1.00       1.0079
     177     2 H    1   12.859298    9.025827    8.036875      1.00       1.0079
     178     1 O    8    0.875207   12.961809    4.786505      6.00      15.9994
     179     2 H    1    0.311008   13.693779    4.460910      1.00       1.0079
     180     2 H    1    0.985118   13.170632    5.671083      1.00       1.0079
     181     1 O    8   11.687794    6.364953    6.898546      6.00      15.9994
     182     2 H    1   12.234496    5.542607    6.625038      1.00       1.0079
     183     2 H    1   10.857566    6.244720    6.237341      1.00       1.0079
     184     1 O    8    2.134140   10.884554   14.124201      6.00      15.9994
     185     2 H    1    2.125036   11.239279   15.013137      1.00       1.0079
     186     2 H    1    1.319527   10.366701   14.075365      1.00       1.0079
     187     1 O    8    7.418117    4.618860    1.984121      6.00      15.9994
     188     2 H    1    7.185525    4.102202    1.147213      1.00       1.0079
     189     2 H    1    7.258189    5.560702    1.790262      1.00       1.0079
     190     1 O    8    8.181807    7.184546   14.309403      6.00      15.9994
     191     2 H    1    7.807191    7.404076   15.238057      1.00       1.0079
     192     2 H    1    8.160492    6.250034   14.111109      1.00       1.0079
     193     1 O    8   12.523216    5.528927   11.038355      6.00      15.9994
     194     2 H    1   13.120983    4.820791   11.325538      1.00       1.0079
     195     2 H    1   11.745218    5.101218   10.603190      1.00       1.0079
     196     1 O    8    0.171542    0.894710   14.852415      6.00      15.9994
     197     2 H    1    0.481155    1.756866   14.417203      1.00       1.0079
     198     2 H    1    0.904064    0.291212   14.679815      1.00       1.0079
     199     1 O    8    9.585378    3.334857    3.209594      6.00      15.9994
     200     2 H    1    8.784620    3.725563    2.788761      1.00       1.0079
     201     2 H    1    9.972199    2.683957    2.629633      1.00       1.0079
     202     1 O    8    0.770030    3.428594   10.606680      6.00      15.9994
     203     2 H    1    1.079661    4.151934   10.035717      1.00       1.0079
     204     2 H    1    0.710378    2.648746    9.959521      1.00       1.0079
     205     1 O    8   15.457734    5.515591    0.917990      6.00      15.9994
     206     2 H    1   15.185149    6.284424    1.451053      1.00       1.0079
     207     2 H    1   16.412740    5.309925    1.034879      1.00       1.0079
     208     1 O    8   12.943962    9.668724   13.552854      6.00      15.9994
     209     2 H    1   13.792847    9.834696   13.078677      1.00       1.0079
     210     2 H    1   12.726081    8.739875   13.329345      1.00       1.0079
     211     1 O    8    0.216781    8.077068    6.128765      6.00      15.9994
     212     2 H    1    0.458681    7.500719    6.898272      1.00       1.0079
     213     2 H    1   -0.703747    8.448280    6.394961      1.00       1.0079
     214     1 O    8   12.783205    4.053064    5.731459      6.00      15.9994
     215     2 H    1   12.235254    3.259236    6.062168      1.00       1.0079
     216     2 H    1   13.518506    4.050638    6.414419      1.00       1.0079
     217     1 O    8   12.684854    1.715209   12.589066      6.00      15.9994
     218     2 H    1   12.207235    1.611705   11.747836      1.00       1.0079
     219     2 H    1   13.038174    0.816447   12.768772      1.00       1.0079
     220     1 O    8    4.749637    7.167247    2.827567      6.00      15.9994
     221     2 H    1    4.874813    7.672573    3.676769      1.00       1.0079
     222     2 H    1    3.918534    6.697551    3.128483      1.00       1.0079
     223     1 O    8   15.368015    9.519880   12.231418      6.00      15.9994
     224     2 H    1   16.307651    9.352822   12.530135      1.00       1.0079
     225     2 H    1   15.108426    8.673567   11.846747      1.00       1.0079
     226     1 O    8    3.114828   15.373538    4.072707      6.00      15.9994
     227     2 H    1    2.720624   14.494770    4.063645      1.00       1.0079
     228     2 H    1    3.758185   15.571630    3.304202      1.00       1.0079
     229     1 O    8    9.636283    6.878571    2.564733      6.00      15.9994
     230     2 H    1    9.990273    6.362926    1.762184      1.00       1.0079
     231     2 H    1    9.798916    7.830236    2.325050      1.00       1.0079
     232     1 O    8    5.710949    4.018396    4.059330      6.00      15.9994
     233     2 H    1    6.045484    4.510453    3.273624      1.00       1.0079
     234     2 H    1    4.765811    3.743832    3.924895      1.00       1.0079
     235     1 O    8   15.433777   10.160283    4.012720      6.00      15.9994
     236     2 H    1   16.077286   10.945205    4.060040      1.00       1.0079
     237     2 H    1   15.937764    9.403131    4.479968      1.00       1.0079
     238     1 O    8    7.265602   15.496438    9.338999      6.00      15.9994
     239     2 H    1    7.794745   14.957145    9.986733      1.00       1.0079
     240     2 H    1    6.799809   16.052015   10.014928      1.00       1.0079
     241     1 O    8    1.955427    3.495846   13.194347      6.00      15.9994
     242     2 H    1    1.758569    3.365929   12.198441      1.00       1.0079
     243     2 H    1    1.491799    4.416594   13.379657      1.00       1.0079
     244     1 O    8   13.957637    0.367908    1.260948      6.00      15.9994
     245     2 H    1   13.807480    1.328920    1.336397      1.00       1.0079
     246     2 H    1   14.688010    0.312599    0.588423      1.00       1.0079
     247     1 O    8    7.067278    7.134706   11.006420      6.00      15.9994
     248     2 H    1    6.570107    7.911756   10.627913      1.00       1.0079
     249     2 H    1    7.913065    7.548107   11.293758      1.00       1.0079
     250     1 O    8   12.424980    9.426284    9.834439      6.00      15.9994
     251     2 H    1   11.861220   10.247555    9.667115      1.00       1.0079
     252     2 H    1   11.878281    8.991212   10.505193      1.00       1.0079
     253     1 O    8   11.288051    2.332538   14.753653      6.00      15.9994
     254     2 H    1   11.538374    2.106128   13.782281      1.00       1.0079
     255     2 H    1   12.006225    2.827082   15.131359      1.00       1.0079
     256     1 O    8   11.711526    6.949728   13.536037      6.00      15.9994
     257     2 H    1   10.746766    6.684227   13.448973      1.00       1.0079
     258     2 H    1   12.056061    6.249837   12.930490      1.00       1.0079
     259     1 O    8    9.652237    9.544997    1.883478      6.00      15.9994
     260     2 H    1   10.149177    9.559622    2.770601      1.00       1.0079
     261     2 H    1    9.177470   10.342844    1.710163      1.00       1.0079
     262     1 O    8    8.115039   10.119812   13.816462      6.00      15.9994
     263     2 H    1    8.966462   10.334387   13.398868      1.00       1.0079
     264     2 H    1    8.135868    9.136377   14.077293      1.00       1.0079
     265     1 O    8    6.743312   13.664196    3.638423      6.00      15.9994
     266     2 H    1    7.207583   13.597522    2.764289      1.00       1.0079
     267     2 H    1    5.763692   13.620093    3.495490      1.00       1.0079
     268     1 O    8    2.369004   10.200818    6.853419      6.00      15.9994
     269     2 H    1    2.059125    9.338651    6.580793      1.00       1.0079
     270     2 H    1    2.217266   10.182723    7.850367      1.00       1.0079
     271     1 O    8    5.864240    1.988246   10.686880      6.00      15.9994
     272     2 H    1    6.019113    2.109938   11.669083      1.00       1.0079
     273     2 H    1    6.213407    2.820041   10.245410      1.00       1.0079
     274     1 O    8    6.017689   12.287663    7.417143      6.00      15.9994
     275     2 H    1    5.693671   13.212293    7.440201      1.00       1.0079
     276     2 H    1    6.821011   12.340489    6.866094      1.00       1.0079
     277     1 O    8    2.121174    7.671849   12.537140      6.00      15.9994
     278     2 H    1    2.264532    6.980749   11.785486      1.00       1.0079
     279     2 H    1    1.765246    7.120466   13.270384      1.00       1.0079
     280     1 O    8    7.609706    0.324692    0.922706      6.00      15.9994
     281     2 H    1    7.586222    0.043710    0.018407      1.00       1.0079
     282     2 H    1    8.527970    0.099847    1.244691      1.00       1.0079
     283     1 O    8    5.160529    8.603278    5.108759      6.00      15.9994
     284     2 H    1    4.803003    9.499572    5.142088      1.00       1.0079
     285     2 H    1    6.128923    8.768755    5.159451      1.00       1.0079
     286     1 O    8   14.482139    3.829602   12.403689      6.00      15.9994
     287     2 H    1   13.917287    3.070913   12.637973      1.00       1.0079
     288     2 H    1   15.331325    3.585021   12.032690      1.00       1.0079
     289     1 O    8   10.397482    0.734292    1.883708      6.00      15.9994
     290     2 H    1   10.770826    0.781454    1.037623      1.00       1.0079
     291     2 H    1   10.601180   -0.148502    2.288979      1.00       1.0079
     292     1 O    8    4.485502    7.985133    9.146266      6.00      15.9994
     293     2 H    1    4.216551    7.854360    8.242904      1.00       1.0079
     294     2 H    1    5.082325    8.751851    9.010806      1.00       1.0079
     295     1 O    8    2.406673    6.482727    4.741546      6.00      15.9994
     296     2 H    1    1.642420    6.963674    5.139496      1.00       1.0079
     297     2 H    1    3.211452    6.579576    5.383443      1.00       1.0079
     298     1 O    8    4.831565   14.839202    8.085822      6.00      15.9994
     299     2 H    1    5.450887   15.322510    7.471754      1.00       1.0079
     300     2 H    1    5.506808   14.651708    8.765506      1.00       1.0079
     301     1 O    8   14.926464    1.239210    6.224810      6.00      15.9994
     302     2 H    1   13.998178    1.453753    6.324505      1.00       1.0079
     303     2 H    1   14.959723    0.860626    5.291266      1.00       1.0079
     304     1 O    8    5.935404   10.408011    9.539258      6.00      15.9994
     305     2 H    1    5.070437   10.581407   10.029528      1.00       1.0079
     306     2 H    1    6.027921   11.190741    8.906255      1.00       1.0079
     307     1 O    8   13.406111   14.539003   12.716519      6.00      15.9994
     308     2 H    1   13.042593   13.955193   13.393603      1.00       1.0079
     309     2 H    1   14.304058   14.714486   12.966934      1.00       1.0079
     310     1 O    8    4.429366    1.215753    6.097786      6.00      15.9994
     311     2 H    1    3.653073    0.887048    5.564974      1.00       1.0079
     312     2 H    1    5.124502    0.672032    5.602988      1.00       1.0079
     313     1 O    8    6.810280    0.043393    5.418167      6.00      15.9994
     314     2 H    1    7.154046    0.964642    5.278091      1.00       1.0079
     315     2 H    1    6.900210   -0.601954    4.643530      1.00       1.0079
     316     1 O    8   12.252862    1.288941    9.930104      6.00      15.9994
     317     2 H    1   12.632474    0.613071    9.302077      1.00       1.0079
     318     2 H    1   11.303795    1.278775    9.662448      1.00       1.0079
     319     1 O    8    6.825728   12.472555   11.161418      6.00      15.9994
     320     2 H    1    6.540646   11.700587   10.647261      1.00       1.0079
     321     2 H    1    6.038382   13.027615   11.319511      1.00       1.0079
     322     1 O    8    7.225602    7.251671    1.254278      6.00      15.9994
     323     2 H    1    8.090404    7.234393    1.768345      1.00       1.0079
     324     2 H    1    6.581054    7.680873    1.876633      1.00       1.0079
     325     1 O    8   10.192105   13.534018    2.775345      6.00      15.9994
     326     2 H    1   10.733106   13.061934    3.448540      1.00       1.0079
     327     2 H    1    9.718732   12.848754    2.326527      1.00       1.0079
     328     1 O    8    4.316247    3.296930    8.101875      6.00      15.9994
     329     2 H    1    3.451444    3.750144    8.109465      1.00       1.0079
     330     2 H    1    4.254605    2.549962    7.459818      1.00       1.0079
     331     1 O    8   11.067216    9.355585    4.321182      6.00      15.9994
     332     2 H    1   11.347473   10.339871    4.517898      1.00       1.0079
     333     2 H    1   11.522245    8.803310    4.904104      1.00       1.0079
     334     1 O    8   11.719531    1.618203    6.745855      6.00      15.9994
     335     2 H    1   10.882827    1.669805    7.245329      1.00       1.0079
     336     2 H    1   11.843872    0.654140    6.490107      1.00       1.0079
     337     1 O    8    1.353758   12.676047   12.239759      6.00      15.9994
     338     2 H    1    1.730022   11.902925   12.691723      1.00       1.0079
     339     2 H    1    1.794233   12.567373   11.351687      1.00       1.0079
     340     1 O    8    5.342601    0.682609    2.446575      6.00      15.9994
     341     2 H    1    6.179779    0.486856    1.958418      1.00       1.0079
     342     2 H    1    5.483102    1.478506    2.964885      1.00       1.0079
     343     1 O    8   11.415527   13.295027   11.075899      6.00      15.9994
     344     2 H    1   10.589178   13.827837   11.294674      1.00       1.0079
     345     2 H    1   12.150411   13.931589   11.205011      1.00       1.0079
     346     1 O    8    0.641209   12.236276    7.369183      6.00      15.9994
     347     2 H    1    0.821653   11.305070    6.974045      1.00       1.0079
     348     2 H    1   -0.365922   12.335662    7.392522      1.00       1.0079
     349     1 O    8    4.374294    7.764171   13.835850      6.00      15.9994
     350     2 H    1    3.514267    7.810728   13.268445      1.00       1.0079
     351     2 H    1    4.537043    6.815141   13.776708      1.00       1.0079
     352     1 O    8    0.711272    1.066030    9.126200      6.00      15.9994
     353     2 H    1    0.509824    1.101656    8.171631      1.00       1.0079
     354     2 H    1    1.690068    1.054572    9.175735      1.00       1.0079
     355     1 O    8   14.752821    7.998355    2.169318      6.00      15.9994
     356     2 H    1   15.028646    8.676970    2.788813      1.00       1.0079
     357     2 H    1   13.768543    8.110452    2.092639      1.00       1.0079
     358     1 O    8    3.644957   10.899236   10.991106      6.00      15.9994
     359     2 H    1    3.526479   11.802991   10.585679      1.00       1.0079
     360     2 H    1    4.193428   10.987194   11.803420      1.00       1.0079
     361     1 O    8    3.661483    3.072514   15.249951      6.00      15.9994
     362     2 H    1    3.294539    2.313677   15.784672      1.00       1.0079
     363     2 H    1    3.096622    3.219965   14.442510      1.00       1.0079
     364     1 O    8   11.941082   14.618179    5.904580      6.00      15.9994
     365     2 H    1   12.308151   13.921797    6.484651      1.00       1.0079
     366     2 H    1   11.042047   14.346899    5.866016      1.00       1.0079
     367     1 O    8    4.715182   12.735610   15.094736      6.00      15.9994
     368     2 H    1    4.700172   13.686836   14.868098      1.00       1.0079
     369     2 H    1    4.536723   12.116615   14.335728      1.00       1.0079
     370     1 O    8   13.154794   12.766368    7.273022      6.00      15.9994
     371     2 H    1   12.335787   12.310862    7.728857      1.00       1.0079
     372     2 H    1   13.478265   13.439903    7.997511      1.00       1.0079
     373     1 O    8    1.797264   14.428287   14.191290      6.00      15.9994
     374     2 H    1    1.629162   13.917950   14.990779      1.00       1.0079
     375     2 H    1    1.797219   13.823907   13.461651      1.00       1.0079



 PW_GRID: Information for grid number                                          1
 PW_GRID: Grid distributed over                                   128 processors
 PW_GRID: Real space group dimensions                                   128    1
 PW_GRID: the grid is blocked:                                                NO
 PW_GRID: Cutoff [a.u.]                                                    500.0
 PW_GRID: spherical cutoff:                                                   NO
 PW_GRID:   Bounds   1           -150     149                Points:         300
 PW_GRID:   Bounds   2           -150     149                Points:         300
 PW_GRID:   Bounds   3           -150     149                Points:         300
 PW_GRID: Volume element (a.u.^3)  0.9372E-03     Volume (a.u.^3)     25303.9229
 PW_GRID: Grid span                                                    FULLSPACE
 PW_GRID:   Distribution                         Average         Max         Min
 PW_GRID:   G-Vectors                           210937.5      211200      210900
 PW_GRID:   G-Rays                                 703.1         704         703
 PW_GRID:   Real Space Points                   210937.5      270000      180000

 PW_GRID: Information for grid number                                          2
 PW_GRID: Grid distributed over                                   128 processors
 PW_GRID: Real space group dimensions                                   128    1
 PW_GRID: the grid is blocked:                                                NO
 PW_GRID: Cutoff [a.u.]                                                    166.7
 PW_GRID: spherical cutoff:                                                   NO
 PW_GRID:   Bounds   1            -90      89                Points:         180
 PW_GRID:   Bounds   2            -90      89                Points:         180
 PW_GRID:   Bounds   3            -90      89                Points:         180
 PW_GRID: Volume element (a.u.^3)  0.4339E-02     Volume (a.u.^3)     25303.9229
 PW_GRID: Grid span                                                    FULLSPACE
 PW_GRID:   Distribution                         Average         Max         Min
 PW_GRID:   G-Vectors                            45562.5       45720       45360
 PW_GRID:   G-Rays                                 253.1         254         252
 PW_GRID:   Real Space Points                    45562.5       64800       32400

 PW_GRID: Information for grid number                                          3
 PW_GRID: Grid distributed over                                   128 processors
 PW_GRID: Real space group dimensions                                     8   16
 PW_GRID: the grid is blocked:                                                NO
 PW_GRID: Cutoff [a.u.]                                                     55.6
 PW_GRID: spherical cutoff:                                                   NO
 PW_GRID:   Bounds   1            -50      49                Points:         100
 PW_GRID:   Bounds   2            -50      49                Points:         100
 PW_GRID:   Bounds   3            -50      49                Points:         100
 PW_GRID: Volume element (a.u.^3)  0.2530E-01     Volume (a.u.^3)     25303.9229
 PW_GRID: Grid span                                                    FULLSPACE
 PW_GRID:   Distribution                         Average         Max         Min
 PW_GRID:   G-Vectors                             7812.5        7900        7700
 PW_GRID:   G-Rays                                  78.1          79          77
 PW_GRID:   Real Space Points                     7812.5        9100        7200

 PW_GRID: Information for grid number                                          4
 PW_GRID: Grid distributed over                                   128 processors
 PW_GRID: Real space group dimensions                                     8   16
 PW_GRID: the grid is blocked:                                                NO
 PW_GRID: Cutoff [a.u.]                                                     18.5
 PW_GRID: spherical cutoff:                                                   NO
 PW_GRID:   Bounds   1            -30      29                Points:          60
 PW_GRID:   Bounds   2            -30      29                Points:          60
 PW_GRID:   Bounds   3            -30      29                Points:          60
 PW_GRID: Volume element (a.u.^3)  0.1171         Volume (a.u.^3)     25303.9229
 PW_GRID: Grid span                                                    FULLSPACE
 PW_GRID:   Distribution                         Average         Max         Min
 PW_GRID:   G-Vectors                             1687.5        1740        1620
 PW_GRID:   G-Rays                                  28.1          29          27
 PW_GRID:   Real Space Points                     1687.5        1920        1260

 PW_GRID: Information for grid number                                          5
 PW_GRID: Grid distributed over                                   128 processors
 PW_GRID: Real space group dimensions                                     8   16
 PW_GRID: the grid is blocked:                                                NO
 PW_GRID: Cutoff [a.u.]                                                      6.2
 PW_GRID: spherical cutoff:                                                   NO
 PW_GRID:   Bounds   1            -18      17                Points:          36
 PW_GRID:   Bounds   2            -18      17                Points:          36
 PW_GRID:   Bounds   3            -18      17                Points:          36
 PW_GRID: Volume element (a.u.^3)  0.5424         Volume (a.u.^3)     25303.9229
 PW_GRID: Grid span                                                    FULLSPACE
 PW_GRID:   Distribution                         Average         Max         Min
 PW_GRID:   G-Vectors                              364.5         396         324
 PW_GRID:   G-Rays                                  10.1          11           9
 PW_GRID:   Real Space Points                      364.5         540         288

 RS_GRID: Information for grid number                                          1
 RS_GRID:   Bounds   1           -150     149                Points:         300
 RS_GRID:   Bounds   2           -150     149                Points:         300
 RS_GRID:   Bounds   3           -150     149                Points:         300
 RS_GRID: Real space distribution over                                  4 groups
 RS_GRID: Real space distribution along direction                              1
 RS_GRID: Border size                                                         20
 RS_GRID: Real space distribution over                                  4 groups
 RS_GRID: Real space distribution along direction                              2
 RS_GRID: Border size                                                         20
 RS_GRID: Real space distribution over                                  8 groups
 RS_GRID: Real space distribution along direction                              3
 RS_GRID: Border size                                                         20
 RS_GRID:   Distribution                         Average         Max         Min
 RS_GRID:   Planes                                 115.0         115         115
 RS_GRID:   Distribution                         Average         Max         Min
 RS_GRID:   Planes                                 115.0         115         115
 RS_GRID:   Distribution                         Average         Max         Min
 RS_GRID:   Planes                                  77.5          78          77

 RS_GRID: Information for grid number                                          2
 RS_GRID:   Bounds   1            -90      89                Points:         180
 RS_GRID:   Bounds   2            -90      89                Points:         180
 RS_GRID:   Bounds   3            -90      89                Points:         180
 RS_GRID: Real space distribution over                                  4 groups
 RS_GRID: Real space distribution along direction                              1
 RS_GRID: Border size                                                         18
 RS_GRID: Real space distribution over                                  4 groups
 RS_GRID: Real space distribution along direction                              2
 RS_GRID: Border size                                                         18
 RS_GRID: Real space distribution over                                  8 groups
 RS_GRID: Real space distribution along direction                              3
 RS_GRID: Border size                                                         18
 RS_GRID:   Distribution                         Average         Max         Min
 RS_GRID:   Planes                                  81.0          81          81
 RS_GRID:   Distribution                         Average         Max         Min
 RS_GRID:   Planes                                  81.0          81          81
 RS_GRID:   Distribution                         Average         Max         Min
 RS_GRID:   Planes                                  58.5          59          58

 RS_GRID: Information for grid number                                          3
 RS_GRID:   Bounds   1            -50      49                Points:         100
 RS_GRID:   Bounds   2            -50      49                Points:         100
 RS_GRID:   Bounds   3            -50      49                Points:         100
 RS_GRID: Real space fully replicated
 RS_GRID: Group size                                                           1

 RS_GRID: Information for grid number                                          4
 RS_GRID:   Bounds   1            -30      29                Points:          60
 RS_GRID:   Bounds   2            -30      29                Points:          60
 RS_GRID:   Bounds   3            -30      29                Points:          60
 RS_GRID: Real space fully replicated
 RS_GRID: Group size                                                           1

 RS_GRID: Information for grid number                                          5
 RS_GRID:   Bounds   1            -18      17                Points:          36
 RS_GRID:   Bounds   2            -18      17                Points:          36
[...]

     Hotelling iter   1 1.00000000   0.104E+01       0.012      193.895
     Hotelling iter   2 1.00000000   0.369E+00       0.012      196.842
     Hotelling iter   3 1.00000000   0.895E-01       0.012      191.528
     Hotelling iter   4 1.00000000   0.900E-02       0.012      191.309
     Hotelling iter   5 1.00000000   0.131E-03       0.012      188.359
     Hotelling iter   6 1.00000000   0.379E-07       0.012      182.775
     Hotelling iter   7 1.00000000   0.506E-14       0.012      197.015
 Maximum norm of dE/dT:   9.46623480338218046E-004
 Grad orthogonality error:   5.41200897281992870E-005
 Step orthogonality error:   4.75693678548784937E-005
 ALMO SCF LS    12   -363.054640778529   0.000E+00   0.942E-03   0.138E+00    -0.23085     1.149
 VAR1: |B*X|:   0.14858303807748674     
 VAR1: |Q.X|:   0.14858303807748674     
 VAR1: |T0+Q.X|:   0.93988373165194017     

     Hotelling iter   1 1.00000000   0.104E+01       0.012      188.735
     Hotelling iter   2 1.00000000   0.369E+00       0.012      197.192
     Hotelling iter   3 1.00000000   0.895E-01       0.012      195.983
     Hotelling iter   4 1.00000000   0.900E-02       0.012      194.825
     Hotelling iter   5 1.00000000   0.131E-03       0.013      179.767
     Hotelling iter   6 1.00000000   0.378E-07       0.013      173.239
     Hotelling iter   7 1.00000000   0.508E-14       0.011      199.511
 Maximum norm of dE/dT:   4.83412619570619106E-004
 Grad orthogonality error:   3.68297681375270985E-005
 ....updating step direction....
 ....applying preconditioner....
 ....special case 1....
 Dir orthogonality error:   1.07533477327008935E-005
 ....final beta....  0.14638466466519365     
 Step orthogonality error:   1.66381353203628378E-005
 ALMO SCF CG    13   -363.054647557181  -0.851E-04   0.484E-03   0.112E-04     0.85886     1.454
 VAR1: |B*X|:   0.14874809898864502     
 VAR1: |Q.X|:   0.14874809898864502     
 VAR1: |T0+Q.X|:   0.93988759075399453     

     Hotelling iter   1 1.00000000   0.104E+01       0.012      196.536
     Hotelling iter   2 1.00000000   0.369E+00       0.012      197.124
     Hotelling iter   3 1.00000000   0.895E-01       0.012      197.099
     Hotelling iter   4 1.00000000   0.900E-02       0.012      193.420
     Hotelling iter   5 1.00000000   0.131E-03       0.011      199.007
     Hotelling iter   6 1.00000000   0.379E-07       0.011      197.792
     Hotelling iter   7 1.00000000   0.505E-14       0.012      193.066
 Maximum norm of dE/dT:   2.51703472169223248E-004
 Grad orthogonality error:   1.42964714069732765E-005
 ....updating step direction....
 ....applying preconditioner....
 ....special case 1....
 Dir orthogonality error:   4.93327574688228790E-006
 ....final beta....  0.22516728127428795     
 Step orthogonality error:   8.68459411263729961E-006
 ALMO SCF CG    14   -363.054660561521  -0.130E-04   0.252E-03   0.222E-02     0.90181     1.448
 VAR1: |B*X|:   0.14866457137183470     
 VAR1: |Q.X|:   0.14866457137183470     
 VAR1: |T0+Q.X|:   0.93989575676231940     

     Hotelling iter   1 1.00000000   0.104E+01       0.016      144.039
     Hotelling iter   2 1.00000000   0.369E+00       0.012      197.394
     Hotelling iter   3 1.00000000   0.895E-01       0.012      196.516
     Hotelling iter   4 1.00000000   0.900E-02       0.012      193.239
     Hotelling iter   5 1.00000000   0.131E-03       0.012      194.151
     Hotelling iter   6 1.00000000   0.379E-07       0.012      195.959
     Hotelling iter   7 1.00000000   0.507E-14       0.012      197.426
 Maximum norm of dE/dT:   1.06784685472857756E-004
 Grad orthogonality error:   4.05780661614340670E-006
 Step orthogonality error:   8.68140803607371001E-006
 ALMO SCF LS    15   -363.054663704929   0.000E+00   0.107E-03  -0.235E-01     0.04303     1.148
 VAR1: |B*X|:   0.14866058618719213     
 VAR1: |Q.X|:   0.14866058618719213     
 VAR1: |T0+Q.X|:   0.93989614637059760     

     Hotelling iter   1 1.00000000   0.104E+01       0.015      150.444
     Hotelling iter   2 1.00000000   0.369E+00       0.015      146.757
     Hotelling iter   3 1.00000000   0.895E-01       0.012      196.471
     Hotelling iter   4 1.00000000   0.900E-02       0.012      192.992
     Hotelling iter   5 1.00000000   0.131E-03       0.011      200.708
     Hotelling iter   6 1.00000000   0.379E-07       0.012      196.879
     Hotelling iter   7 1.00000000   0.508E-14       0.012      195.206
 Maximum norm of dE/dT:   1.23469530725257463E-004
 Grad orthogonality error:   4.90920752541305183E-006
 ....updating step direction....
 ....applying preconditioner....
 ....special case 1....
 Dir orthogonality error:   1.67313804039138877E-006
 ....final beta....  0.19793410047632276     
 Step orthogonality error:   3.39145464275022688E-006
 ALMO SCF CG    16   -363.054663711462  -0.315E-05   0.123E-03  -0.131E-06     0.99207     1.462
 VAR1: |B*X|:   0.14868985311429209     
 VAR1: |Q.X|:   0.14868985311429209     
 VAR1: |T0+Q.X|:   0.93990068649896097     

     Hotelling iter   1 1.00000000   0.104E+01       0.012      194.809
     Hotelling iter   2 1.00000000   0.369E+00       0.012      197.518
     Hotelling iter   3 1.00000000   0.895E-01       0.012      194.873
     Hotelling iter   4 1.00000000   0.900E-02       0.012      195.567
     Hotelling iter   5 1.00000000   0.131E-03       0.012      197.354
     Hotelling iter   6 1.00000000   0.379E-07       0.012      193.504
     Hotelling iter   7 1.00000000   0.507E-14       0.012      196.815
 Maximum norm of dE/dT:   8.59788575889835468E-005
 Grad orthogonality error:   1.86646966208054532E-006
 Step orthogonality error:   3.38933035295126827E-006
 ALMO SCF LS    17   -363.054664291516   0.000E+00   0.862E-04   0.694E-01    -0.12619     1.145
 VAR1: |B*X|:   0.14868613049079746     
 VAR1: |Q.X|:   0.14868613049079746     
 VAR1: |T0+Q.X|:   0.93990010901474286     

     Hotelling iter   1 1.00000000   0.104E+01       0.012      187.476
     Hotelling iter   2 1.00000000   0.369E+00       0.011      199.394
     Hotelling iter   3 1.00000000   0.895E-01       0.012      193.614
     Hotelling iter   4 1.00000000   0.900E-02       0.012      197.531
     Hotelling iter   5 1.00000000   0.131E-03       0.012      197.292
     Hotelling iter   6 1.00000000   0.379E-07       0.012      194.919
     Hotelling iter   7 1.00000000   0.505E-14       0.011      197.959
 Maximum norm of dE/dT:   6.03714173269800770E-005
 Grad orthogonality error:   1.68727620217190596E-006
 ....updating step direction....
 ....applying preconditioner....
 ....special case 1....
 Dir orthogonality error:   7.81168413379766176E-007
 ....final beta....  0.16318846074279772     
 Step orthogonality error:   1.20920361304333471E-006
 ALMO SCF CG    18   -363.054664304103  -0.593E-06   0.606E-04   0.345E-07     0.90918     1.450
 VAR1: |B*X|:   0.14866672050232049     
 VAR1: |Q.X|:   0.14866672050232049     
 VAR1: |T0+Q.X|:   0.93990083254417689     

     Hotelling iter   1 1.00000000   0.104E+01       0.014      168.138
     Hotelling iter   2 1.00000000   0.369E+00       0.012      189.446
     Hotelling iter   3 1.00000000   0.895E-01       0.012      196.547
     Hotelling iter   4 1.00000000   0.900E-02       0.011      202.867
     Hotelling iter   5 1.00000000   0.131E-03       0.012      194.477
     Hotelling iter   6 1.00000000   0.379E-07       0.012      194.788
     Hotelling iter   7 1.00000000   0.511E-14       0.011      198.411
 Maximum norm of dE/dT:   2.79341199944865360E-005
 Grad orthogonality error:   9.33179338625984377E-007
 Step orthogonality error:   1.20871047297756924E-006
 ALMO SCF LS    19   -363.054664406300   0.000E+00   0.279E-04  -0.546E-02     0.01100     1.148
 VAR1: |B*X|:   0.14866648568849428     
 VAR1: |Q.X|:   0.14866648568849428     
 VAR1: |T0+Q.X|:   0.93990084129712981     

     Hotelling iter   1 1.00000000   0.104E+01       0.011      198.127
     Hotelling iter   2 1.00000000   0.369E+00       0.011      198.841
     Hotelling iter   3 1.00000000   0.895E-01       0.012      196.372
     Hotelling iter   4 1.00000000   0.900E-02       0.012      191.704
     Hotelling iter   5 1.00000000   0.131E-03       0.011      199.543
     Hotelling iter   6 1.00000000   0.379E-07       0.012      195.543
     Hotelling iter   7 1.00000000   0.511E-14       0.012      191.197
 Maximum norm of dE/dT:   2.88399120163564105E-005
 Grad orthogonality error:   9.24061576449005525E-007
 ....updating step direction....
 ....applying preconditioner....
 ....special case 1....
 Dir orthogonality error:   4.15588621050708320E-007
 ....final beta....  0.21592338586649137     
 Step orthogonality error:   6.76576190752617398E-007
 ALMO SCF CG    20   -363.054664406315  -0.102E-06   0.288E-04  -0.220E-08     0.96619     1.444
 VAR1: |B*X|:   0.14867097496244983     
 VAR1: |Q.X|:   0.14867097496244983     
 VAR1: |T0+Q.X|:   0.93990015960158468     

     Hotelling iter   1 1.00000000   0.104E+01       0.011      198.747
     Hotelling iter   2 1.00000000   0.369E+00       0.011      199.995
     Hotelling iter   3 1.00000000   0.895E-01       0.012      195.457
     Hotelling iter   4 1.00000000   0.900E-02       0.012      193.523
     Hotelling iter   5 1.00000000   0.131E-03       0.011      200.060
     Hotelling iter   6 1.00000000   0.379E-07       0.012      192.519
     Hotelling iter   7 1.00000000   0.505E-14       0.012      194.915
 Maximum norm of dE/dT:   1.86580932727991894E-005
 Grad orthogonality error:   4.28141089310741078E-007
 ....updating step direction....
 ....applying preconditioner....
 ....special case 1....
 Dir orthogonality error:   1.94130605004586951E-007
 ....final beta....  0.24633060144621841     
 Step orthogonality error:   3.50306128114738979E-007
 ALMO SCF CG    21   -363.054664429412  -0.231E-07   0.187E-04   0.157E-02     1.01450     1.443
 VAR1: |B*X|:   0.14867231049153154     
 VAR1: |Q.X|:   0.14867231049153154     
 VAR1: |T0+Q.X|:   0.93989974684193367     

     Hotelling iter   1 1.00000000   0.104E+01       0.015      147.463
     Hotelling iter   2 1.00000000   0.369E+00       0.012      187.417
     Hotelling iter   3 1.00000000   0.895E-01       0.011      199.336
     Hotelling iter   4 1.00000000   0.900E-02       0.012      196.688
     Hotelling iter   5 1.00000000   0.131E-03       0.012      195.672
     Hotelling iter   6 1.00000000   0.379E-07       0.012      194.925
     Hotelling iter   7 1.00000000   0.501E-14       0.011      197.903
 Maximum norm of dE/dT:   1.24050858453698487E-005
 Grad orthogonality error:   1.67964145281122351E-007
 Step orthogonality error:   3.50254822757250338E-007
 ALMO SCF LS    22   -363.054664434357   0.000E+00   0.124E-04   0.710E-01    -0.14084     1.148
 VAR1: |B*X|:   0.14867212508041711     
 VAR1: |Q.X|:   0.14867212508041711     
 VAR1: |T0+Q.X|:   0.93989980414523611     

     Hotelling iter   1 1.00000000   0.104E+01       0.012      194.626
     Hotelling iter   2 1.00000000   0.369E+00       0.011      198.270
     Hotelling iter   3 1.00000000   0.895E-01       0.012      193.049
     Hotelling iter   4 1.00000000   0.900E-02       0.011      198.712
     Hotelling iter   5 1.00000000   0.131E-03       0.011      198.530
     Hotelling iter   6 1.00000000   0.379E-07       0.012      193.211
     Hotelling iter   7 1.00000000   0.508E-14       0.012      193.353
 Maximum norm of dE/dT:   8.09258932099693961E-006
 Grad orthogonality error:   1.96553111971071346E-007
 ALMO SCF LS    23   -363.054664434489   0.000E+00   0.810E-05   0.710E-01    -0.14084     0.977
 _ENERGY-0:   -2151.4692938002672     
 _ENERGY-D:   -1.4601500705126482     
 _ENERGY-F:   -2152.9294438707798     

 DECOMPOSITION OF THE DELOCALIZATION ENERGY

 ENERGY| Total FORCE_EVAL ( QS ) energy (a.u.):            -2151.469293845739230


 -------------------------------------------------------------------------------
 ----                             MULTIGRID INFO                            ----
 -------------------------------------------------------------------------------
 count for grid        1:        1664490          cutoff [a.u.]          500.00
 count for grid        2:        1514850          cutoff [a.u.]          166.67
 count for grid        3:        1403480          cutoff [a.u.]           55.56
 count for grid        4:        1380997          cutoff [a.u.]           18.52
 count for grid        5:        2634348          cutoff [a.u.]            6.17
 total gridlevel count  :        8598165

 -------------------------------------------------------------------------------
 -                                                                             -
 -                         MESSAGE PASSING PERFORMANCE                         -
 -                                                                             -
 -------------------------------------------------------------------------------

 ROUTINE             CALLS  TOT TIME [s]  AVE VOLUME [Bytes]  PERFORMANCE [MB/s]
 MP_Group                5         0.000
 MP_Bcast               50         0.012            4195123.            17489.24
 MP_Allreduce          213         0.998               7780.                1.66
 MP_Gather               4         0.005               3584.                2.64
 MP_Sync                 5         0.001
 MP_Alltoall           723        24.805            6239294.              181.86
 MP_ISendRecv        19812         0.074              30827.             8214.66
 MP_Wait             24222         6.062
 MP_ISend             3990         0.173             172551.             3969.65
 MP_IRecv             3990         0.182             172416.             3780.85
 -------------------------------------------------------------------------------


 -------------------------------------------------------------------------------
 -                                                                             -
 -                           R E F E R E N C E S                               -
 -                                                                             -
 -------------------------------------------------------------------------------
 
 CP2K version 2.2.268 (Development Version), the CP2K developers group (2011).
 CP2K is freely available from http://cp2k.berlios.de/ .

 VandeVondele, J; Hutter, J. 
 JOURNAL OF CHEMICAL PHYSICS, 127 (11), 114105 (2007). 
 Gaussian basis sets for accurate calculations on molecular systems in
 gas and condensed phases.
 http://dx.doi.org/10.1063/1.2770708


 Krack, M. 
 THEORETICAL CHEMISTRY ACCOUNTS, 114 (1-3), 145-152 (2005). 
 Pseudopotentials for H to Kr optimized for gradient-corrected
 exchange-correlation functionals.
 http://dx.doi.org/10.1007/s00214-005-0655-y


 VandeVondele, J; Krack, M; Mohamed, F; Parrinello, M; Chassaing, T;
 Hutter, J. COMPUTER PHYSICS COMMUNICATIONS, 167 (2), 103-128 (2005). 
 QUICKSTEP: Fast and accurate density functional calculations using a
 mixed Gaussian and plane waves approach.
 http://dx.doi.org/10.1016/j.cpc.2004.12.014


 Frigo, M; Johnson, SG. 
 PROCEEDINGS OF THE IEEE, 93 (2), 216-231 (2005). 
 The design and implementation of FFTW3.
 http://dx.doi.org/10.1109/JPROC.2004.840301


 Hartwigsen, C; Goedecker, S; Hutter, J. 
 PHYSICAL REVIEW B, 58 (7), 3641-3662 (1998). 
 Relativistic separable dual-space Gaussian pseudopotentials from H to Rn.
 http://dx.doi.org/10.1103/PhysRevB.58.3641


 Lippert, G; Hutter, J; Parrinello, M. 
 MOLECULAR PHYSICS, 92 (3), 477-487 (1997). 
 A hybrid Gaussian and plane wave density functional scheme.
 http://dx.doi.org/10.1080/002689797170220


 Goedecker, S; Teter, M; Hutter, J. 
 PHYSICAL REVIEW B, 54 (3), 1703-1710 (1996). 
 Separable dual-space Gaussian pseudopotentials.
 http://dx.doi.org/10.1103/PhysRevB.54.1703


 BECKE, AD. PHYSICAL REVIEW A, 38 (6), 3098-3100 (1988). 
 DENSITY-FUNCTIONAL EXCHANGE-ENERGY APPROXIMATION WITH CORRECT
 ASYMPTOTIC-BEHAVIOR.
 http://dx.doi.org/10.1103/PhysRevA.38.3098


 LEE, CT; YANG, WT; PARR, RG. 
 PHYSICAL REVIEW B, 37 (2), 785-789 (1988). 
 DEVELOPMENT OF THE COLLE-SALVETTI CORRELATION-ENERGY FORMULA INTO A
 FUNCTIONAL OF THE ELECTRON-DENSITY.
 http://dx.doi.org/10.1103/PhysRevB.37.785


 -------------------------------------------------------------------------------
 -                                                                             -
 -                                T I M I N G                                  -
 -                                                                             -
 -------------------------------------------------------------------------------
 SUBROUTINE                       CALLS  ASD         SELF TIME        TOTAL TIME
                                              AVERAGE  MAXIMUM  AVERAGE  MAXIMUM
 CP2K                                 1  1.0    0.032    0.038  337.433  337.497
 qs_energies_scf                      1  2.0    0.000    0.001  336.836  336.911
 almo_entry_scf                       1  3.0    0.000    0.000  332.683  332.757
 almo_scf_main                        1  4.0    0.000    0.000  275.522  275.609
 almo_scf_dm_to_ks                   25  6.0    0.000    0.000  270.089  270.351
 almo_scf_main_block_diagonal         1  5.0    0.000    0.001  239.659  239.740
 qs_ks_update_qs_env                 26  7.0    0.000    0.001  163.534  163.793
 qs_ks_build_kohn_sham_matrix        26  8.0    0.032    0.054  163.502  163.761
 sum_up_and_integrate                26  9.0    0.161    0.203  131.712  131.969
 integrate_v_rspace                  26 10.0  116.001  117.921  131.551  131.830
 qs_rho_update_rho                   26  7.0    0.000    0.000  116.062  116.090
 calculate_rho_elec                  26  8.0   95.314   98.672  116.062  116.089
 almo_scf_main_quenched_almos         2  5.0    0.036    0.052   81.392   81.422
 almo_post_scf                        1  4.0    0.001    0.001   45.569   45.592
 cp_dbcsr_multiply_d               1873  7.4    0.009    0.010   45.022   45.291
 fft_wrap_pw1pw2                    495 10.9    0.015    0.019   36.415   36.927
 fft_wrap_pw1pw2_500                287 11.9    2.157    2.618   34.536   35.015
 fft3d_ps                           495 12.9    9.770   11.892   30.553   31.301
 qs_vxc_create                       26  9.0    0.002    0.002   27.471   27.608
 xc_vxc_pw_create                    26 10.0    0.450    0.526   27.469   27.607
 cp_dbcsr_mult_NS_NR                272  7.7   24.695   25.468   24.702   25.475
 density_rs2pw                       26  9.0    0.636    0.884   15.656   18.077
 rs_pw_transfer                     261 10.9    0.008    0.020   12.984   15.430
 xc_rho_set_and_dset_create          26 11.0    1.724    2.194   14.060   14.826
 almo_scf_t_to_p                     49  6.4    0.001    0.001   13.251   13.543
 almo_scf_init                        1  4.0    0.000    0.000   11.591   11.608
 almo_scf_init_qs                     1  5.0    0.180    0.181   11.288   11.305
 x_to_yz                            182 14.1   10.955   11.272   10.955   11.272
 distribute_matrix                   52 10.0    8.552   11.121    8.750   11.201
 yz_to_x                            157 13.8    9.419   10.611    9.419   10.611
 potential_pw2rs                     26 11.0    0.017    0.019    9.820    9.855
 rs_pw_transfer_RS2PW_500            27 10.8    4.335    7.172    4.335    7.172
 -------------------------------------------------------------------------------

  **** **** ******  **  PROGRAM ENDED AT                 2012-06-12 22:10:20.032
 ***** ** ***  *** **   PROGRAM RAN ON                                  nid00029
 **    ****   ******    PROGRAM RAN BY                                  root ;-)
 ***** **    ** ** **   PROGRAM PROCESS ID                                 19402
  **** **  *******  **  PROGRAM STOPPED IN /scratch/weisshorn/rustamr/e298-1.304
                                           388
Application 983418 resources: utime ~41770s, stime ~1491s
