
  **** **** ******  **  PROGRAM STARTED AT               2012-06-12 21:52:50.099
 ***** ** ***  *** **   PROGRAM STARTED ON                              nid00029
 **    ****   ******    PROGRAM STARTED BY                              root ;-)
 ***** **    ** ** **   PROGRAM PROCESS ID                                 19262
  **** **  *******  **  PROGRAM STARTED IN /scratch/weisshorn/rustamr/e298-1.304
                                           388

 CP2K| version string:                CP2K version 2.2.268 (Development Version)
 CP2K| is freely available from                          http://cp2k.berlios.de/
 CP2K| Program compiled at                         Sun May 27 15:14:38 CEST 2012
 CP2K| Program compiled on                                                 rosa5
 CP2K| Program compiled for                                    rosa-new-gfortran
 CP2K| Last CVS entry                xas_tp_scf.F/1.101/Wed Jun 29 13:43:33 2011
 CP2K| Input file name                                           bulk.090014.inp

 GLOBAL| Force Environment number                                              1
 GLOBAL| Basis set file name            /users/rustamr/dev/cp2k/tests/QS/BASIS_M
 GLOBAL| Geminal file name                                         BASIS_GEMINAL
 GLOBAL| Potential file name            /users/rustamr/dev/cp2k/tests/QS/GTH_POT
 GLOBAL| MM Potential file name                                     MM_POTENTIAL
 GLOBAL| Coordinate file name                                      __STD_INPUT__
 GLOBAL| Method name                                                        CP2K
 GLOBAL| Project name                                                       bulk
 GLOBAL| Preferred FFT library                                             FFTW3
 GLOBAL| Run type                                                         ENERGY
 GLOBAL| All-to-all communication in single precision                          F
 GLOBAL| FFTs using library dependent lengths                                  F
 GLOBAL| Global print level                                               MEDIUM
 GLOBAL| Total number of message passing processes                           128
 GLOBAL| Number of threads for this process                                    1
 GLOBAL| This output is from process                                           0

 MEMORY| system memory details [Kb]
 MEMORY|                        rank 0           min           max       average
 MEMORY| MemTotal             33082792      33082792      33082792      33082792
 MEMORY| MemFree              30722652      30718460      30724504      30721709
 MEMORY| Buffers                     0             0             0             0
 MEMORY| Cached                 110180        108880        110180        109370
 MEMORY| Slab                   192544        192452        193036        192768
 MEMORY| SReclaimable             4484          4464          4768          4596
 MEMORY| MemLikelyFree        30837316      30832472      30838072      30835676

 DBCSR| Multiplication driver                                                SMM
 DBCSR| Multiplication stack size                                           1000
 DBCSR| Use subcommunicators                                                   F
 DBCSR| Use MPI combined types                                                 F
 DBCSR| Use MPI memory allocation                                              T


 *** Fundamental physical constants (SI units) ***

 *** Literature: B. J. Mohr and B. N. Taylor,
 ***             CODATA recommended values of the fundamental physical
 ***             constants: 2006, Web Version 5.1
 ***             http://physics.nist.gov/constants

 Speed of light in vacuum [m/s]                             2.99792458000000E+08
 Magnetic constant or permeability of vacuum [N/A**2]       1.25663706143592E-06
 Electric constant or permittivity of vacuum [F/m]          8.85418781762039E-12
 Planck constant (h) [J*s]                                  6.62606896000000E-34
 Planck constant (h-bar) [J*s]                              1.05457162825177E-34
 Elementary charge [C]                                      1.60217648700000E-19
 Electron mass [kg]                                         9.10938215000000E-31
 Electron g factor [ ]                                     -2.00231930436220E+00
 Proton mass [kg]                                           1.67262163700000E-27
 Fine-structure constant                                    7.29735253760000E-03
 Rydberg constant [1/m]                                     1.09737315685270E+07
 Avogrado constant [1/mol]                                  6.02214179000000E+23
 Boltzmann constant [J/K]                                   1.38065040000000E-23
 Atomic mass unit [kg]                                      1.66053878200000E-27
 Bohr radius [m]                                            5.29177208590000E-11

 *** Conversion factors ***

 [u] -> [a.u.]                                              1.82288848426455E+03
 [Angstrom] -> [Bohr] = [a.u.]                              1.88972613288564E+00
 [a.u.] = [Bohr] -> [Angstrom]                              5.29177208590000E-01
 [a.u.] -> [s]                                              2.41888432650478E-17
 [a.u.] -> [fs]                                             2.41888432650478E-02
 [a.u.] -> [J]                                              4.35974393937059E-18
 [a.u.] -> [K]                                              3.15774647902944E+05
 [a.u.] -> [kJ/mol]                                         2.62549961709828E+03
 [a.u.] -> [kcal/mol]                                       6.27509468713739E+02
 [a.u.] -> [Pa]                                             2.94210107994716E+13
 [a.u.] -> [bar]                                            2.94210107994716E+08
 [a.u.] -> [atm]                                            2.90362800883016E+08
 [a.u.] -> [eV]                                             2.72113838565563E+01
 [a.u.] -> [Hz]                                             6.57968392072181E+15
 [a.u.] -> [1/cm] (wave numbers)                            2.19474631370540E+05
 [a.u./Bohr**2] -> [1/cm]                                   5.14048714338585E+03
 

 CELL| Volume [angstrom^3]:                                             3749.654
 CELL| Vector a [angstrom]:      15.536     0.000     0.000    |a| =      15.536
 CELL| Vector b [angstrom]:       0.000    15.536     0.000    |b| =      15.536
 CELL| Vector c [angstrom]:       0.000     0.000    15.536    |c| =      15.536
 CELL| Angle (b,c), alpha [degree]:                                       90.000
 CELL| Angle (a,c), beta  [degree]:                                       90.000
 CELL| Angle (a,b), gamma [degree]:                                       90.000

 CELL_REF| Volume [angstrom^3]:                                         3749.654
 CELL_REF| Vector a [angstrom    15.536     0.000     0.000    |a| =      15.536
 CELL_REF| Vector b [angstrom     0.000    15.536     0.000    |b| =      15.536
 CELL_REF| Vector c [angstrom     0.000     0.000    15.536    |c| =      15.536
 CELL_REF| Angle (b,c), alpha [degree]:                                   90.000
 CELL_REF| Angle (a,c), beta  [degree]:                                   90.000
 CELL_REF| Angle (a,b), gamma [degree]:                                   90.000

 CELL_TOP| Volume [angstrom^3]:                                         3749.654
 CELL_TOP| Vector a [angstrom    15.536     0.000     0.000    |a| =      15.536
 CELL_TOP| Vector b [angstrom     0.000    15.536     0.000    |b| =      15.536
 CELL_TOP| Vector c [angstrom     0.000     0.000    15.536    |c| =      15.536
 CELL_TOP| Angle (b,c), alpha [degree]:                                   90.000
 CELL_TOP| Angle (a,c), beta  [degree]:                                   90.000
 CELL_TOP| Angle (a,b), gamma [degree]:                                   90.000

 GENERATE|  Preliminary Number of Bonds generated:                           250
 GENERATE|  Achieved consistency in connectivity generation.
 GENERATE|  Number of Bonds generated:                                       250
 REORDER |  
 REORDER |  Reordering Molecules. The Reordering of molecules will override all
 REORDER |  information regarding molecule names and residue names.
 REORDER |  New ones will be provided on the basis of the connectivity!
 REORDER |  Number of unique molecules found:      1.
 REORDER |  

 GENERATE|  Preliminary Number of Bonds generated:                           250
 GENERATE|  Achieved consistency in connectivity generation.
 GENERATE|  Number of Bonds generated:                                       250
 GENERATE|  Preliminary Number of Bends generated:                           125
 GENERATE|  Number of Bends generated:                                       125
 GENERATE|  Number of UB generated:                                          125
 GENERATE|  Preliminary Number of Torsions generated:                          0
 GENERATE|  Number of Torsions generated:                                      0
 GENERATE|  Number of Impropers generated:                                     0
 GENERATE|  Number of 1-4 interactions generated:                              0

 *******************************************************************************
 *******************************************************************************
 **                                                                           **
 **     #####                         ##              ##                      **
 **    ##   ##            ##          ##              ##                      **
 **   ##     ##                       ##            ######                    **
 **   ##     ##  ##   ##  ##   #####  ##  ##   ####   ##    #####    #####    **
 **   ##     ##  ##   ##  ##  ##      ## ##   ##      ##   ##   ##  ##   ##   **
 **   ##  ## ##  ##   ##  ##  ##      ####     ###    ##   ######   ######    **
 **    ##  ###   ##   ##  ##  ##      ## ##      ##   ##   ##       ##        **
 **     #######   #####   ##   #####  ##  ##  ####    ##    #####   ##        **
 **           ##                                                    ##        **
 **                                                                           **
 **                                                ... make the atoms dance   **
 **                                                                           **
 **            Copyright (C) by CP2K Developers Group (2000 - 2011)           **
 **                                                                           **
 *******************************************************************************

 DFT| Spin restricted Kohn-Sham (RKS) calculation                            RKS
 DFT| Multiplicity                                                             1
 DFT| Number of spin states                                                    1
 DFT| Charge                                                                   0
 DFT| Self-interaction correction (SIC)                                       NO
 DFT| Cutoffs: density                                              1.000000E-10
 DFT|          gradient                                             1.000000E-10
 DFT|          tau                                                  1.000000E-10
 DFT|          cutoff_smoothing_range                               0.000000E+00
 DFT| XC density smoothing                                                  NONE
 DFT| XC derivatives                                                          PW
 FUNCTIONAL| ROUTINE=NEW
 FUNCTIONAL| BECKE88:
 FUNCTIONAL| A. Becke, Phys. Rev. A 38, 3098 (1988) {LDA version}
 FUNCTIONAL| LYP:
 FUNCTIONAL| C. Lee, W. Yang, R.G. Parr, Phys. Rev. B, 37, 785 (1988) {LDA versi
 FUNCTIONAL| on}

 QS| Method:                                                                 GPW
 QS| Density plane wave grid type                        NON-SPHERICAL FULLSPACE
 QS| Number of grid levels:                                                    5
 QS| Density cutoff [a.u.]:                                                500.0
 QS| Multi grid cutoff [a.u.]: 1) grid level                               500.0
 QS|                           2) grid level                               166.7
 QS|                           3) grid level                                55.6
 QS|                           4) grid level                                18.5
 QS|                           5) grid level                                 6.2
 QS| Grid level progression factor:                                          3.0
 QS| Relative density cutoff [a.u.]:                                        15.0
 QS| Consistent realspace mapping and integration 
 QS| Interaction thresholds: eps_pgf_orb:                                1.0E-05
 QS|                         eps_filter_matrix:                          0.0E+00
 QS|                         eps_core_charge:                            1.0E-12
 QS|                         eps_rho_gspace:                             1.0E-10
 QS|                         eps_rho_rspace:                             1.0E-10
 QS|                         eps_gvg_rspace:                             1.0E-05
 QS|                         eps_ppl:                                    1.0E-02
 QS|                         eps_ppnl:                                   1.0E-07


 ATOMIC KIND INFORMATION

  1. Atomic kind: O                                     Number of atoms:     125

     Orbital basis set information for                          TZV2P-MOLOPT-GTH

       Number of orbital shell sets:                                           1
       Number of orbital shells:                                               8
       Number of primitive Cartesian functions:                                7
       Number of Cartesian basis functions:                                   24
       Number of spherical basis functions:                                   22

       Normalised Cartesian orbitals:

                        Set   Shell   Orbital            Exponent    Coefficient

                          1       1    2s               12.015955      -0.284499
                                                         5.108150      -0.322498
                                                         2.048398       0.148191
                                                         0.832382       0.295475
                                                         0.352316       0.150829
                                                         0.142977       0.015788
                                                         0.046761      -0.000019

                          1       2    3s               12.015955       0.725622
                                                         5.108150       0.644384
                                                         2.048398      -0.157350
                                                         0.832382      -0.853528
                                                         0.352316       0.146068
                                                         0.142977       0.153978
                                                         0.046761       0.000658

                          1       3    4s               12.015955       1.228006
                                                         5.108150       1.271453
                                                         2.048398      -0.537390
                                                         0.832382      -1.759282
                                                         0.352316       1.533697
                                                         0.142977      -0.562509
                                                         0.046761       0.081954

                          1       4    3px              12.015955       1.192141
                                                         5.108150       1.354170
                                                         2.048398       0.897267
                                                         0.832382       0.408839
                                                         0.352316       0.116648
                                                         0.142977       0.022184
                                                         0.046761       0.000308
                          1       4    3py              12.015955       1.192141
                                                         5.108150       1.354170
                                                         2.048398       0.897267
                                                         0.832382       0.408839
                                                         0.352316       0.116648
                                                         0.142977       0.022184
                                                         0.046761       0.000308
                          1       4    3pz              12.015955       1.192141
                                                         5.108150       1.354170
                                                         2.048398       0.897267
                                                         0.832382       0.408839
                                                         0.352316       0.116648
                                                         0.142977       0.022184
                                                         0.046761       0.000308

                          1       5    4px              12.015955      -1.062381
                                                         5.108150      -1.285791
                                                         2.048398      -0.727000
                                                         0.832382      -0.522764
                                                         0.352316       0.182681
                                                         0.142977       0.087560
                                                         0.046761       0.000981
                          1       5    4py              12.015955      -1.062381
                                                         5.108150      -1.285791
                                                         2.048398      -0.727000
                                                         0.832382      -0.522764
                                                         0.352316       0.182681
                                                         0.142977       0.087560
                                                         0.046761       0.000981
                          1       5    4pz              12.015955      -1.062381
                                                         5.108150      -1.285791
                                                         2.048398      -0.727000
                                                         0.832382      -0.522764
                                                         0.352316       0.182681
                                                         0.142977       0.087560
                                                         0.046761       0.000981

                          1       6    5px              12.015955      -0.063722
                                                         5.108150       0.363638
                                                         2.048398       0.015152
                                                         0.832382      -0.083580
                                                         0.352316       0.692078
                                                         0.142977      -0.184312
                                                         0.046761       0.007664
                          1       6    5py              12.015955      -0.063722
                                                         5.108150       0.363638
                                                         2.048398       0.015152
                                                         0.832382      -0.083580
                                                         0.352316       0.692078
                                                         0.142977      -0.184312
                                                         0.046761       0.007664
                          1       6    5pz              12.015955      -0.063722
                                                         5.108150       0.363638
                                                         2.048398       0.015152
                                                         0.832382      -0.083580
                                                         0.352316       0.692078
                                                         0.142977      -0.184312
                                                         0.046761       0.007664

                          1       7    4dx2             12.015955       1.125955
                                                         5.108150       1.160468
                                                         2.048398       0.999335
                                                         0.832382       0.756334
                                                         0.352316       0.048604
                                                         0.142977       0.010378
                                                         0.046761      -0.000027
                          1       7    4dxy             12.015955       1.950212
                                                         5.108150       2.009990
                                                         2.048398       1.730899
                                                         0.832382       1.310009
                                                         0.352316       0.084185
                                                         0.142977       0.017974
                                                         0.046761      -0.000046
                          1       7    4dxz             12.015955       1.950212
                                                         5.108150       2.009990
                                                         2.048398       1.730899
                                                         0.832382       1.310009
                                                         0.352316       0.084185
                                                         0.142977       0.017974
                                                         0.046761      -0.000046
                          1       7    4dy2             12.015955       1.125955
                                                         5.108150       1.160468
                                                         2.048398       0.999335
                                                         0.832382       0.756334
                                                         0.352316       0.048604
                                                         0.142977       0.010378
                                                         0.046761      -0.000027
                          1       7    4dyz             12.015955       1.950212
                                                         5.108150       2.009990
                                                         2.048398       1.730899
                                                         0.832382       1.310009
                                                         0.352316       0.084185
                                                         0.142977       0.017974
                                                         0.046761      -0.000046
                          1       7    4dz2             12.015955       1.125955
                                                         5.108150       1.160468
                                                         2.048398       0.999335
                                                         0.832382       0.756334
                                                         0.352316       0.048604
                                                         0.142977       0.010378
                                                         0.046761      -0.000027

                          1       8    5dx2             12.015955      -2.135425
                                                         5.108150       0.581743
                                                         2.048398      -1.302492
                                                         0.832382       0.098118
                                                         0.352316       0.292085
                                                         0.142977      -0.022029
                                                         0.046761      -0.003795
                          1       8    5dxy             12.015955      -3.698665
                                                         5.108150       1.007608
                                                         2.048398      -2.255983
                                                         0.832382       0.169945
                                                         0.352316       0.505906
                                                         0.142977      -0.038155
                                                         0.046761      -0.006574
                          1       8    5dxz             12.015955      -3.698665
                                                         5.108150       1.007608
                                                         2.048398      -2.255983
                                                         0.832382       0.169945
                                                         0.352316       0.505906
                                                         0.142977      -0.038155
                                                         0.046761      -0.006574
                          1       8    5dy2             12.015955      -2.135425
                                                         5.108150       0.581743
                                                         2.048398      -1.302492
                                                         0.832382       0.098118
                                                         0.352316       0.292085
                                                         0.142977      -0.022029
                                                         0.046761      -0.003795
                          1       8    5dyz             12.015955      -3.698665
                                                         5.108150       1.007608
                                                         2.048398      -2.255983
                                                         0.832382       0.169945
                                                         0.352316       0.505906
                                                         0.142977      -0.038155
                                                         0.046761      -0.006574
                          1       8    5dz2             12.015955      -2.135425
                                                         5.108150       0.581743
                                                         2.048398      -1.302492
                                                         0.832382       0.098118
                                                         0.352316       0.292085
                                                         0.142977      -0.022029
                                                         0.046761      -0.003795

     Potential information for                                       GTH-BLYP-q6

       Description:                       Goedecker-Teter-Hutter pseudopotential
                                           Goedecker et al., PRB 54, 1703 (1996)
                                          Hartwigsen et al., PRB 58, 3641 (1998)
                                                      Krack, TCA 114, 145 (2005)

       Gaussian exponent of the core charge distribution:               8.438331
       Electronic configuration (s p d ...):                               2   4

       Parameters of the local part of the GTH pseudopotential:

                          rloc        C1          C2          C3          C4
                        0.243420  -16.991892    2.566142

       Parameters of the non-local part of the GTH pseudopotential:

                   l      r(l)      h(i,j,l)

                   0    0.220831   18.388851
                   1    0.217201

  2. Atomic kind: H                                     Number of atoms:     250

     Orbital basis set information for                          TZV2P-MOLOPT-GTH

       Number of orbital shell sets:                                           1
       Number of orbital shells:                                               5
       Number of primitive Cartesian functions:                                7
       Number of Cartesian basis functions:                                    9
       Number of spherical basis functions:                                    9

       Normalised Cartesian orbitals:

                        Set   Shell   Orbital            Exponent    Coefficient

                          1       1    2s               11.478000       0.129129
                                                         3.700759       0.177012
                                                         1.446884       0.141285
                                                         0.716815       0.245670
                                                         0.247919       0.094768
                                                         0.066918       0.004062
                                                         0.021708      -0.000053

                          1       2    3s               11.478000      -0.079256
                                                         3.700759      -0.152992
                                                         1.446884       0.015066
                                                         0.716815      -0.331234
                                                         0.247919       0.210690
                                                         0.066918       0.058630
                                                         0.021708      -0.003429

                          1       3    4s               11.478000      -0.246880
                                                         3.700759       0.023016
                                                         1.446884      -1.109374
                                                         0.716815       1.524652
                                                         0.247919      -0.227968
                                                         0.066918      -0.037343
                                                         0.021708       0.005696

                          1       4    3px              11.478000       0.325290
                                                         3.700759       0.187466
                                                         1.446884       0.443300
                                                         0.716815       0.267738
                                                         0.247919       0.088285
                                                         0.066918       0.019092
                                                         0.021708       0.000629
                          1       4    3py              11.478000       0.325290
                                                         3.700759       0.187466
                                                         1.446884       0.443300
                                                         0.716815       0.267738
                                                         0.247919       0.088285
                                                         0.066918       0.019092
                                                         0.021708       0.000629
                          1       4    3pz              11.478000       0.325290
                                                         3.700759       0.187466
                                                         1.446884       0.443300
                                                         0.716815       0.267738
                                                         0.247919       0.088285
                                                         0.066918       0.019092
                                                         0.021708       0.000629

                          1       5    4px              11.478000      -1.727188
                                                         3.700759      -0.598393
                                                         1.446884      -3.813128
                                                         0.716815       1.901151
                                                         0.247919      -0.262425
                                                         0.066918       0.006339
                                                         0.021708       0.007345
                          1       5    4py              11.478000      -1.727188
                                                         3.700759      -0.598393
                                                         1.446884      -3.813128
                                                         0.716815       1.901151
                                                         0.247919      -0.262425
                                                         0.066918       0.006339
                                                         0.021708       0.007345
                          1       5    4pz              11.478000      -1.727188
                                                         3.700759      -0.598393
                                                         1.446884      -3.813128
                                                         0.716815       1.901151
                                                         0.247919      -0.262425
                                                         0.066918       0.006339
                                                         0.021708       0.007345

     Potential information for                                       GTH-BLYP-q1

       Description:                       Goedecker-Teter-Hutter pseudopotential
                                           Goedecker et al., PRB 54, 1703 (1996)
                                          Hartwigsen et al., PRB 58, 3641 (1998)
                                                      Krack, TCA 114, 145 (2005)

       Gaussian exponent of the core charge distribution:              12.500000
       Electronic configuration (s p d ...):                                   1

       Parameters of the local part of the GTH pseudopotential:

                          rloc        C1          C2          C3          C4
                        0.200000   -4.195961    0.730498


 MOLECULE KIND INFORMATION

     1. Molecule kind: H2O                       Number of atoms:              3
                     Atom         Atomic kind name
                        1                        O
                        2                        H
                        3                        H

        The name was automatically generated: F
        Number of molecules:    125
        Molecule list:                1         2         3         4         5
                                      6         7         8         9        10
                                     11        12        13        14        15
                                     16        17        18        19        20
                                     21        22        23        24        25
                                     26        27        28        29        30
                                     31        32        33        34        35
                                     36        37        38        39        40
                                     41        42        43        44        45
                                     46        47        48        49        50
                                     51        52        53        54        55
                                     56        57        58        59        60
                                     61        62        63        64        65
                                     66        67        68        69        70
                                     71        72        73        74        75
                                     76        77        78        79        80
                                     81        82        83        84        85
                                     86        87        88        89        90
                                     91        92        93        94        95
                                     96        97        98        99       100
                                    101       102       103       104       105
                                    106       107       108       109       110
                                    111       112       113       114       115
                                    116       117       118       119       120
                                    121       122       123       124       125
        Number of bonds:            2
        Number of bends:            1
        Number of Urey-Bradley:     1


 MOLECULE KIND SET INFORMATION               Total Number of bonds:          250
                                             Total Number of bends:          125
                                             Total Number of Urey-Bradley:   125
                                             Total Number of torsions:         0
                                             Total Number of improper:         0
                                              Total Number of opbends:         0


 TOTAL NUMBERS AND MAXIMUM NUMBERS

  Total number of            - Atomic kinds:                                   2
                             - Atoms:                                        375
                             - Shell sets:                                   375
                             - Shells:                                      2250
                             - Primitive Cartesian functions:               2625
                             - Cartesian basis functions:                   5250
                             - Spherical basis functions:                   5000

  Maximum angular momentum of- Orbital basis functions:                        2
                             - Local part of the GTH pseudopotential:          2
                             - Non-local part of the GTH pseudopotential:      0


 MODULE QUICKSTEP:  ATOMIC COORDINATES IN angstrom

  Atom  Kind  Element       X           Y           Z          Z(eff)       Mass

       1     1 O    8    2.204813    1.283241    1.263927      6.00      15.9994
       2     2 H    1    2.058037    1.154963    2.228192      1.00       1.0079
       3     2 H    1    1.351613    0.984812    0.814461      1.00       1.0079
       4     1 O    8    7.782824    2.803321   15.212752      6.00      15.9994
       5     2 H    1    8.113012    1.880986   15.070612      1.00       1.0079
       6     2 H    1    8.476402    3.452369   14.922291      1.00       1.0079
       7     1 O    8    2.948811    6.001460   10.705899      6.00      15.9994
       8     2 H    1    3.139177    6.758965   10.106444      1.00       1.0079
       9     2 H    1    3.708554    5.665058   11.210964      1.00       1.0079
      10     1 O    8    4.489385   15.345085   14.052755      6.00      15.9994
      11     2 H    1    4.981956   16.237629   14.221096      1.00       1.0079
      12     2 H    1    3.609608   15.340999   14.555291      1.00       1.0079
      13     1 O    8    8.008688    9.070729    4.981573      6.00      15.9994
      14     2 H    1    8.887829    8.598178    4.693710      1.00       1.0079
      15     2 H    1    8.262260    9.837019    5.563300      1.00       1.0079
      16     1 O    8    1.943204    4.463513    8.203626      6.00      15.9994
      17     2 H    1    1.600046    4.460725    7.289081      1.00       1.0079
      18     2 H    1    1.554991    5.276351    8.538718      1.00       1.0079
      19     1 O    8    4.462627    6.240365    6.568183      6.00      15.9994
      20     2 H    1    5.145261    5.572543    6.284174      1.00       1.0079
      21     2 H    1    4.745146    7.122842    6.176622      1.00       1.0079
      22     1 O    8    6.251827   10.341959    3.096243      6.00      15.9994
      23     2 H    1    5.341111   10.587989    3.440283      1.00       1.0079
      24     2 H    1    6.704962   10.008898    3.976185      1.00       1.0079
      25     1 O    8    5.687293    2.806769   13.600305      6.00      15.9994
      26     2 H    1    4.886905    2.947315   14.154780      1.00       1.0079
      27     2 H    1    6.472797    3.017862   14.154148      1.00       1.0079
      28     1 O    8   14.029983    3.396536    8.647237      6.00      15.9994
      29     2 H    1   13.419026    2.784852    9.135888      1.00       1.0079
      30     2 H    1   14.929163    3.348945    9.025103      1.00       1.0079
      31     1 O    8   14.344843   15.006321    4.036000      6.00      15.9994
      32     2 H    1   13.409157   15.110638    4.276699      1.00       1.0079
      33     2 H    1   14.392205   15.121399    3.011796      1.00       1.0079
      34     1 O    8    7.450986   12.839002   14.915612      6.00      15.9994
      35     2 H    1    7.590078   11.909658   14.637265      1.00       1.0079
      36     2 H    1    6.410823   12.956941   14.953163      1.00       1.0079
      37     1 O    8    6.159572    4.490057    9.471503      6.00      15.9994
      38     2 H    1    5.347727    4.282655    8.930490      1.00       1.0079
      39     2 H    1    6.147299    5.481124    9.527150      1.00       1.0079
      40     1 O    8   13.131467   13.409812    0.252126      6.00      15.9994
      41     2 H    1   13.467284   14.301493    0.572190      1.00       1.0079
      42     2 H    1   13.455963   12.821716    0.927698      1.00       1.0079
      43     1 O    8   10.117232    5.489730    9.161823      6.00      15.9994
      44     2 H    1   10.732237    5.608354    8.400902      1.00       1.0079
      45     2 H    1    9.402556    4.733499    8.888705      1.00       1.0079
      46     1 O    8    4.352592   12.722284    3.173163      6.00      15.9994
      47     2 H    1    4.167080   12.444035    4.085153      1.00       1.0079
      48     2 H    1    3.549474   12.455222    2.704413      1.00       1.0079
      49     1 O    8    8.467192    7.180604    7.377034      6.00      15.9994
      50     2 H    1    9.126434    6.572022    7.863216      1.00       1.0079
      51     2 H    1    8.398404    6.603935    6.648785      1.00       1.0079
      52     1 O    8   11.071061   11.634874    8.786024      6.00      15.9994
      53     2 H    1   10.237440   11.046778    8.553000      1.00       1.0079
      54     2 H    1   11.024625   12.106721    9.615002      1.00       1.0079
      55     1 O    8    0.475454    5.749892   13.702377      6.00      15.9994
      56     2 H    1    0.352867    5.578730   14.669513      1.00       1.0079
      57     2 H    1   -0.325791    5.244226   13.351591      1.00       1.0079
      58     1 O    8   13.309154    3.731396    0.600512      6.00      15.9994
      59     2 H    1   13.510580    3.512437    1.567932      1.00       1.0079
      60     2 H    1   13.921429    4.461801    0.448379      1.00       1.0079
      61     1 O    8   10.751228   11.532615   12.919896      6.00      15.9994
      62     2 H    1   11.625029   11.151165   13.116239      1.00       1.0079
      63     2 H    1   11.006387   12.147859   12.147519      1.00       1.0079
      64     1 O    8    3.317610    1.000173    9.509312      6.00      15.9994
      65     2 H    1    3.984715    1.634519    9.179102      1.00       1.0079
      66     2 H    1    3.420095    0.185376    9.007483      1.00       1.0079
      67     1 O    8    5.336252   10.283604   13.410323      6.00      15.9994
      68     2 H    1    6.330609   10.357617   13.263416      1.00       1.0079
      69     2 H    1    5.193083    9.324931   13.485830      1.00       1.0079
      70     1 O    8    0.047112    3.800601    5.864099      6.00      15.9994
      71     2 H    1    0.219362    3.201730    5.140656      1.00       1.0079
      72     2 H    1    0.007871    3.178665    6.607217      1.00       1.0079
      73     1 O    8   15.029851   11.862629   10.686065      6.00      15.9994
      74     2 H    1   14.858477   11.090997   11.275737      1.00       1.0079
      75     2 H    1   15.845934   12.128289   11.097365      1.00       1.0079
      76     1 O    8    7.807357    2.581891    5.218082      6.00      15.9994
      77     2 H    1    8.345423    2.871886    4.458835      1.00       1.0079
      78     2 H    1    6.943343    3.053181    4.985318      1.00       1.0079
      79     1 O    8    4.803541   14.635975   11.327693      6.00      15.9994
      80     2 H    1    4.817181   14.951806   12.277916      1.00       1.0079
      81     2 H    1    4.566202   15.512511   10.871686      1.00       1.0079
      82     1 O    8    2.342018   13.157907    9.368927      6.00      15.9994
      83     2 H    1    3.035678   13.179498    8.666778      1.00       1.0079
      84     2 H    1    1.508165   12.985378    8.836106      1.00       1.0079
      85     1 O    8   11.384863    5.956201    0.439995      6.00      15.9994
      86     2 H    1   12.045730    5.265619    0.616865      1.00       1.0079
      87     2 H    1   12.002045    6.663129    0.081701      1.00       1.0079
      88     1 O    8    3.001571   11.272434    1.193567      6.00      15.9994
      89     2 H    1    3.199012   10.298802    1.137384      1.00       1.0079
      90     2 H    1    3.796522   11.658600    0.770375      1.00       1.0079
      91     1 O    8    5.232148    5.382465   12.378545      6.00      15.9994
      92     2 H    1    5.411323    4.508655   12.821970      1.00       1.0079
      93     2 H    1    6.040392    5.844194   11.961386      1.00       1.0079
      94     1 O    8    8.386464    3.900654    7.687399      6.00      15.9994
      95     2 H    1    8.282842    3.161368    7.064641      1.00       1.0079
      96     2 H    1    7.596961    3.920415    8.223753      1.00       1.0079
      97     1 O    8    2.809198    4.106978    3.919401      6.00      15.9994
      98     2 H    1    2.479472    4.856253    4.413119      1.00       1.0079
      99     2 H    1    2.685594    4.330338    2.964793      1.00       1.0079
     100     1 O    8    8.745883    9.522874    8.813371      6.00      15.9994
     101     2 H    1    7.916636    9.892919    9.116107      1.00       1.0079
     102     2 H    1    8.452397    8.800029    8.157627      1.00       1.0079
     103     1 O    8    9.691548    4.663901   14.270935      6.00      15.9994
     104     2 H    1   10.254314    5.069735   14.931103      1.00       1.0079
     105     2 H    1   10.249240    3.842027   14.126619      1.00       1.0079
     106     1 O    8    1.626592   10.032223    9.541432      6.00      15.9994
     107     2 H    1    0.775853   10.217396   10.061775      1.00       1.0079
     108     2 H    1    2.236140   10.505603   10.119764      1.00       1.0079
     109     1 O    8    8.031410   15.201631   13.683628      6.00      15.9994
     110     2 H    1    8.959999   15.166245   13.942177      1.00       1.0079
     111     2 H    1    7.815536   14.375216   14.105535      1.00       1.0079
     112     1 O    8    9.290519   14.279127    5.329522      6.00      15.9994
     113     2 H    1    8.489152   14.864637    5.479981      1.00       1.0079
     114     2 H    1    9.290459   14.187145    4.280173      1.00       1.0079
     115     1 O    8   14.221968    7.609231   10.402941      6.00      15.9994
     116     2 H    1   13.881975    6.693516   10.626842      1.00       1.0079
     117     2 H    1   13.421060    8.077549   10.000151      1.00       1.0079
     118     1 O    8    4.363731   11.105887    5.383651      6.00      15.9994
     119     2 H    1    3.481641   10.882031    5.709774      1.00       1.0079
     120     2 H    1    4.767825   11.504801    6.211705      1.00       1.0079
     121     1 O    8    1.145605    1.986544    3.784970      6.00      15.9994
     122     2 H    1    1.848832    2.750193    3.769879      1.00       1.0079
     123     2 H    1    1.591115    1.238546    4.227429      1.00       1.0079
     124     1 O    8   11.922245   12.159554    4.356159      6.00      15.9994
     125     2 H    1   12.705765   12.057121    3.729350      1.00       1.0079
     126     2 H    1   11.875747   13.157099    4.594280      1.00       1.0079
     127     1 O    8    9.828344    1.607055    8.792122      6.00      15.9994
     128     2 H    1    9.463370    2.494258    8.624157      1.00       1.0079
     129     2 H    1    9.092463    1.044696    9.056723      1.00       1.0079
     130     1 O    8    2.697188    4.993126    1.403243      6.00      15.9994
     131     2 H    1    2.951981    4.342163    0.663838      1.00       1.0079
     132     2 H    1    3.463021    5.606574    1.510166      1.00       1.0079
     133     1 O    8   14.211944   14.251912    9.732633      6.00      15.9994
     134     2 H    1   14.480144   13.309157   10.003509      1.00       1.0079
     135     2 H    1   15.116953   14.635593    9.484454      1.00       1.0079
     136     1 O    8   10.144410    8.184114   10.615888      6.00      15.9994
     137     2 H    1    9.898462    7.214691   10.455781      1.00       1.0079
     138     2 H    1    9.643191    8.661117    9.820306      1.00       1.0079
     139     1 O    8    0.171138   12.631835    0.048023      6.00      15.9994
     140     2 H    1    0.508978   11.724282   -0.040961      1.00       1.0079
     141     2 H    1   -0.772495   12.513473   -0.158651      1.00       1.0079
     142     1 O    8   12.459497    8.897315    0.815021      6.00      15.9994
     143     2 H    1   11.465640    8.949459    0.843715      1.00       1.0079
     144     2 H    1   12.828723    9.335508    0.016317      1.00       1.0079
     145     1 O    8   13.545135    2.935327    3.305036      6.00      15.9994
     146     2 H    1   14.535726    2.884224    3.415599      1.00       1.0079
     147     2 H    1   13.191911    3.356714    4.181629      1.00       1.0079
     148     1 O    8    8.807051   14.288350   11.339632      6.00      15.9994
     149     2 H    1    8.557197   14.662059   12.228342      1.00       1.0079
     150     2 H    1    8.219718   13.493569   11.328999      1.00       1.0079
     151     1 O    8   13.502079   11.296966    2.299809      6.00      15.9994
     152     2 H    1   14.323239   10.961524    2.550991      1.00       1.0079
     153     2 H    1   12.995110   10.575050    1.916468      1.00       1.0079
     154     1 O    8    3.377027    8.482283    0.724885      6.00      15.9994
     155     2 H    1    3.666376    8.166766    1.634350      1.00       1.0079
     156     2 H    1    3.929495    8.165339   -0.044018      1.00       1.0079
     157     1 O    8    0.872238    7.288385    8.859726      6.00      15.9994
     158     2 H    1    0.041808    7.250197    9.390847      1.00       1.0079
     159     2 H    1    1.241311    8.155911    9.193193      1.00       1.0079
     160     1 O    8    8.169682   11.804240    1.762436      6.00      15.9994
     161     2 H    1    7.427696   11.351868    2.242752      1.00       1.0079
     162     2 H    1    7.793887   12.007990    0.838721      1.00       1.0079
     163     1 O    8    9.857912    5.867928    5.045136      6.00      15.9994
     164     2 H    1    9.815819    6.205026    4.165267      1.00       1.0079
     165     2 H    1    9.749616    4.883785    4.878610      1.00       1.0079
     166     1 O    8    0.705827    9.131278    0.015734      6.00      15.9994
     167     2 H    1    0.144475    8.503243    0.608037      1.00       1.0079
     168     2 H    1    1.614515    8.865490    0.350467      1.00       1.0079
     169     1 O    8   10.639820   14.384266   14.210938      6.00      15.9994
     170     2 H    1   10.636973   13.592874   13.631994      1.00       1.0079
     171     2 H    1   10.896297   13.962255   14.991743      1.00       1.0079
     172     1 O    8    7.823421   12.034940    5.753928      6.00      15.9994
     173     2 H    1    8.510987   12.710920    5.946763      1.00       1.0079
     174     2 H    1    7.430365   12.468825    4.969586      1.00       1.0079
     175     1 O    8   13.165561    8.593817    6.862633      6.00      15.9994
     176     2 H    1   12.690813    7.763412    6.922869      1.00       1.0079
     177     2 H    1   13.006527    8.767947    7.800587      1.00       1.0079
     178     1 O    8    0.783652   12.851663    4.693995      6.00      15.9994
     179     2 H    1    0.429796   13.682774    4.402893      1.00       1.0079
     180     2 H    1    0.609513   12.960585    5.636197      1.00       1.0079
     181     1 O    8   11.786037    6.111598    6.838325      6.00      15.9994
     182     2 H    1   12.166515    5.212836    6.596575      1.00       1.0079
     183     2 H    1   11.054216    6.134202    6.088918      1.00       1.0079
     184     1 O    8    2.229743   10.941871   14.037774      6.00      15.9994
     185     2 H    1    2.728343   11.407662   14.728254      1.00       1.0079
     186     2 H    1    1.794352   10.155572   14.383454      1.00       1.0079
     187     1 O    8    7.412370    4.559428    1.938876      6.00      15.9994
     188     2 H    1    7.327929    3.832772    1.222640      1.00       1.0079
     189     2 H    1    7.341078    5.471344    1.593953      1.00       1.0079
     190     1 O    8    8.148550    7.352419   14.242509      6.00      15.9994
     191     2 H    1    7.647908    7.351226   15.145183      1.00       1.0079
     192     2 H    1    8.735830    6.585312   14.240512      1.00       1.0079
     193     1 O    8   12.612488    5.556984   11.084401      6.00      15.9994
     194     2 H    1   13.068042    4.787039   11.513863      1.00       1.0079
     195     2 H    1   12.023073    5.143550   10.393568      1.00       1.0079
     196     1 O    8    0.303436    1.166679   14.767051      6.00      15.9994
     197     2 H    1    0.628713    1.711741   14.031924      1.00       1.0079
     198     2 H    1    0.986020    0.474065   14.617669      1.00       1.0079
     199     1 O    8    9.526200    3.298348    3.252689      6.00      15.9994
     200     2 H    1    8.977597    3.599578    2.560512      1.00       1.0079
     201     2 H    1    9.858842    2.487584    2.852889      1.00       1.0079
     202     1 O    8    0.594380    3.454661   10.371599      6.00      15.9994
     203     2 H    1    1.097933    3.810637    9.606340      1.00       1.0079
     204     2 H    1    0.691054    2.456264   10.238375      1.00       1.0079
     205     1 O    8    0.159376    5.555463    0.888126      6.00      15.9994
     206     2 H    1   -0.159298    6.159269    1.590765      1.00       1.0079
     207     2 H    1    1.154904    5.526364    0.954276      1.00       1.0079
     208     1 O    8   12.937052    9.563487   13.553446      6.00      15.9994
     209     2 H    1   13.862992    9.284189   13.566959      1.00       1.0079
     210     2 H    1   12.459862    8.722106   13.324402      1.00       1.0079
     211     1 O    8    0.250210    8.035726    6.140906      6.00      15.9994
     212     2 H    1    0.448408    7.685171    7.026564      1.00       1.0079
     213     2 H    1   -0.746776    8.241173    6.157509      1.00       1.0079
     214     1 O    8   12.805843    3.942408    5.866473      6.00      15.9994
     215     2 H    1   12.631045    3.067338    6.306815      1.00       1.0079
     216     2 H    1   13.831343    4.042375    5.873906      1.00       1.0079
     217     1 O    8   12.715632    1.558984   12.497443      6.00      15.9994
     218     2 H    1   12.424947    1.554479   11.545735      1.00       1.0079
     219     2 H    1   13.040169    0.612652   12.690967      1.00       1.0079
     220     1 O    8    4.324137    7.384312    2.996536      6.00      15.9994
     221     2 H    1    4.677660    7.813424    3.830231      1.00       1.0079
     222     2 H    1    3.543684    6.900333    3.383675      1.00       1.0079
     223     1 O    8   15.435875    9.444839   12.158451      6.00      15.9994
     224     2 H    1   16.263935    9.009841   12.497371      1.00       1.0079
     225     2 H    1   14.913588    8.730490   11.742639      1.00       1.0079
     226     1 O    8    2.823783   15.499654    4.063915      6.00      15.9994
     227     2 H    1    2.867791   14.537014    3.898502      1.00       1.0079
     228     2 H    1    3.466642   15.880667    3.406718      1.00       1.0079
     229     1 O    8    9.461780    7.027190    2.577593      6.00      15.9994
     230     2 H    1   10.183380    6.680101    1.950686      1.00       1.0079
     231     2 H    1    9.471736    8.020257    2.443740      1.00       1.0079
     232     1 O    8    5.837501    3.839401    4.139860      6.00      15.9994
     233     2 H    1    6.280267    4.232271    3.339367      1.00       1.0079
     234     2 H    1    4.883830    4.093838    4.030154      1.00       1.0079
     235     1 O    8    0.007892    9.940453    3.802300      6.00      15.9994
     236     2 H    1    0.478117   10.790822    4.002752      1.00       1.0079
     237     2 H    1   -0.473076    9.794050    4.716211      1.00       1.0079
     238     1 O    8    7.243631   15.489100    9.574203      6.00      15.9994
     239     2 H    1    7.825377   15.117410   10.238580      1.00       1.0079
     240     2 H    1    6.974075   16.350401    9.937609      1.00       1.0079
     241     1 O    8    2.033156    3.555942   13.241174      6.00      15.9994
     242     2 H    1    2.171689    3.691255   12.297006      1.00       1.0079
     243     2 H    1    1.336346    4.190847   13.418548      1.00       1.0079
     244     1 O    8   14.031343    0.377932    1.309125      6.00      15.9994
     245     2 H    1   13.578785    1.057956    1.834775      1.00       1.0079
     246     2 H    1   14.549992    0.772377    0.579078      1.00       1.0079
     247     1 O    8    6.989713    7.141326   11.276188      6.00      15.9994
     248     2 H    1    6.483869    7.958897   10.957980      1.00       1.0079
     249     2 H    1    7.718388    7.326608   11.905654      1.00       1.0079
     250     1 O    8   12.362528    9.458471    9.790106      6.00      15.9994
     251     2 H    1   11.931720   10.317628    9.692336      1.00       1.0079
     252     2 H    1   11.634602    8.938703   10.127795      1.00       1.0079
     253     1 O    8   11.307471    2.381159   14.768231      6.00      15.9994
     254     2 H    1   11.679882    2.237519   13.838528      1.00       1.0079
     255     2 H    1   12.009988    2.813486   15.275537      1.00       1.0079
     256     1 O    8   12.047378    7.134314   13.514859      6.00      15.9994
     257     2 H    1   11.227641    6.643001   13.551376      1.00       1.0079
     258     2 H    1   12.352094    6.927785   12.574182      1.00       1.0079
     259     1 O    8    9.884030    9.571424    1.920664      6.00      15.9994
     260     2 H    1   10.077095    9.667617    2.881262      1.00       1.0079
     261     2 H    1    9.240229   10.371963    1.762095      1.00       1.0079
     262     1 O    8    8.134005   10.110909   13.768554      6.00      15.9994
     263     2 H    1    8.953484   10.524473   13.425940      1.00       1.0079
     264     2 H    1    8.376310    9.192066   14.135420      1.00       1.0079
     265     1 O    8    6.832379   13.580104    3.527242      6.00      15.9994
     266     2 H    1    7.277933   13.060877    2.823897      1.00       1.0079
     267     2 H    1    5.836881   13.432893    3.360688      1.00       1.0079
     268     1 O    8    2.224657   10.048970    6.884901      6.00      15.9994
     269     2 H    1    1.707907    9.422520    6.391810      1.00       1.0079
     270     2 H    1    2.250387    9.796924    7.790423      1.00       1.0079
     271     1 O    8    5.900121    2.151748   10.599617      6.00      15.9994
     272     2 H    1    5.621006    2.285146   11.526046      1.00       1.0079
     273     2 H    1    5.666476    2.975745   10.078818      1.00       1.0079
     274     1 O    8    5.849153   12.196627    7.502244      6.00      15.9994
     275     2 H    1    5.561901   13.094131    7.798155      1.00       1.0079
     276     2 H    1    6.647771   12.252745    6.893408      1.00       1.0079
     277     1 O    8    1.973383    7.827254   12.768113      6.00      15.9994
     278     2 H    1    2.395278    7.231028   12.017587      1.00       1.0079
     279     2 H    1    1.393420    7.178957   13.258360      1.00       1.0079
     280     1 O    8    7.778200    0.095935    0.983391      6.00      15.9994
     281     2 H    1    7.902723   -0.127048    0.050858      1.00       1.0079
     282     2 H    1    8.681694    0.273178    1.376298      1.00       1.0079
     283     1 O    8    5.242017    8.512476    5.254892      6.00      15.9994
     284     2 H    1    4.993602    9.423626    5.265579      1.00       1.0079
     285     2 H    1    6.179679    8.539078    5.412551      1.00       1.0079
     286     1 O    8   14.283445    3.721585   12.531156      6.00      15.9994
     287     2 H    1   13.801567    2.875936   12.805798      1.00       1.0079
     288     2 H    1   14.793947    3.435485   11.768905      1.00       1.0079
     289     1 O    8   10.308034    0.836500    2.181373      6.00      15.9994
     290     2 H    1   10.987903    1.186203    1.518482      1.00       1.0079
     291     2 H    1   10.398962   -0.121560    2.276653      1.00       1.0079
     292     1 O    8    4.360458    7.971851    9.127131      6.00      15.9994
     293     2 H    1    4.723010    7.294411    8.539690      1.00       1.0079
     294     2 H    1    4.810671    8.798033    9.056262      1.00       1.0079
     295     1 O    8    2.315970    6.574010    4.770344      6.00      15.9994
     296     2 H    1    1.370412    6.758110    5.006939      1.00       1.0079
     297     2 H    1    2.986307    6.807241    5.528574      1.00       1.0079
     298     1 O    8    4.762107   14.560235    8.221695      6.00      15.9994
     299     2 H    1    5.016069   15.110242    7.435944      1.00       1.0079
     300     2 H    1    5.402007   14.822591    8.912401      1.00       1.0079
     301     1 O    8   14.908742    1.194432    6.196878      6.00      15.9994
     302     2 H    1   13.969642    1.092395    6.517355      1.00       1.0079
     303     2 H    1   14.953092    0.580447    5.431463      1.00       1.0079
     304     1 O    8    5.962991   10.453498    9.541848      6.00      15.9994
     305     2 H    1    5.238413   10.668160   10.205958      1.00       1.0079
     306     2 H    1    6.003665   11.223388    8.931339      1.00       1.0079
     307     1 O    8   13.449653   14.421541   12.777667      6.00      15.9994
     308     2 H    1   13.347617   14.157662   13.672865      1.00       1.0079
     309     2 H    1   14.056975   13.865009   12.266120      1.00       1.0079
     310     1 O    8    4.507476    1.601448    6.033655      6.00      15.9994
     311     2 H    1    4.025454    1.018864    5.323328      1.00       1.0079
     312     2 H    1    5.480295    1.305536    5.993574      1.00       1.0079
     313     1 O    8    6.947703    0.109470    5.593066      6.00      15.9994
     314     2 H    1    7.284662    1.019746    5.184360      1.00       1.0079
     315     2 H    1    6.946104   -0.491781    4.788502      1.00       1.0079
     316     1 O    8   12.110641    1.404425    9.916756      6.00      15.9994
     317     2 H    1   12.178292    0.430895   10.049826      1.00       1.0079
     318     2 H    1   11.212937    1.462967    9.495519      1.00       1.0079
     319     1 O    8    6.734587   12.315218   11.444760      6.00      15.9994
     320     2 H    1    6.558369   11.757957   10.655910      1.00       1.0079
     321     2 H    1    6.284708   13.181642   11.343885      1.00       1.0079
     322     1 O    8    7.119700    7.196177    1.368282      6.00      15.9994
     323     2 H    1    7.953870    7.137263    1.868352      1.00       1.0079
     324     2 H    1    6.357912    7.216522    2.004337      1.00       1.0079
     325     1 O    8   10.211348   13.543229    2.435340      6.00      15.9994
     326     2 H    1   10.935764   13.141789    2.941285      1.00       1.0079
     327     2 H    1    9.540901   12.837605    2.226344      1.00       1.0079
     328     1 O    8    4.295651    3.276419    8.009900      6.00      15.9994
     329     2 H    1    3.536509    3.845758    8.147789      1.00       1.0079
     330     2 H    1    4.307724    2.783530    7.129624      1.00       1.0079
     331     1 O    8   10.673078    9.274527    4.454771      6.00      15.9994
     332     2 H    1   10.960125   10.190064    4.644861      1.00       1.0079
     333     2 H    1   11.223538    8.664645    5.014585      1.00       1.0079
     334     1 O    8   11.710998    1.625192    6.636328      6.00      15.9994
     335     2 H    1   11.096349    1.592312    7.409903      1.00       1.0079
     336     2 H    1   11.623803    0.823650    6.130073      1.00       1.0079
     337     1 O    8    1.498454   12.850128   12.107326      6.00      15.9994
     338     2 H    1    1.455806   12.016844   12.679819      1.00       1.0079
     339     2 H    1    2.271122   12.723939   11.451589      1.00       1.0079
     340     1 O    8    5.372456    0.699748    2.185117      6.00      15.9994
     341     2 H    1    5.970063    0.193506    1.655456      1.00       1.0079
     342     2 H    1    5.817218    0.932606    3.004604      1.00       1.0079
     343     1 O    8   11.229939   13.303758   10.958085      6.00      15.9994
     344     2 H    1   10.475546   13.957607   10.901714      1.00       1.0079
     345     2 H    1   11.891259   13.775555   11.542660      1.00       1.0079
     346     1 O    8    0.460199   12.337800    7.387742      6.00      15.9994
     347     2 H    1    1.049296   11.505618    7.470238      1.00       1.0079
     348     2 H    1   -0.496734   12.044820    7.504763      1.00       1.0079
     349     1 O    8    4.532588    7.714808   13.963502      6.00      15.9994
     350     2 H    1    3.551456    7.540343   13.749605      1.00       1.0079
     351     2 H    1    4.966939    7.018338   13.413243      1.00       1.0079
     352     1 O    8    0.645994    0.984751    9.251743      6.00      15.9994
     353     2 H    1    0.369946    1.341850    8.405065      1.00       1.0079
     354     2 H    1    1.638875    1.014718    9.313145      1.00       1.0079
     355     1 O    8   14.835821    7.718603    2.081218      6.00      15.9994
     356     2 H    1   15.245990    8.362093    2.704508      1.00       1.0079
     357     2 H    1   14.026347    8.142686    1.657554      1.00       1.0079
     358     1 O    8    3.783801   11.227932   11.068856      6.00      15.9994
     359     2 H    1    3.922044   12.152673   10.934852      1.00       1.0079
     360     2 H    1    3.865734   10.844206   12.004136      1.00       1.0079
     361     1 O    8    3.635428    3.198371   15.342853      6.00      15.9994
     362     2 H    1    3.151538    2.364991   15.621614      1.00       1.0079
     363     2 H    1    3.111542    3.478917   14.524411      1.00       1.0079
     364     1 O    8   11.941611   14.618264    5.545689      6.00      15.9994
     365     2 H    1   12.262017   14.103787    6.311768      1.00       1.0079
     366     2 H    1   10.936747   14.472294    5.545402      1.00       1.0079
     367     1 O    8    4.810450   12.595048   15.069102      6.00      15.9994
     368     2 H    1    4.592518   13.493571   14.763387      1.00       1.0079
     369     2 H    1    5.030723   11.983279   14.325702      1.00       1.0079
     370     1 O    8   13.088509   12.926048    7.459674      6.00      15.9994
     371     2 H    1   12.414636   12.426466    8.004434      1.00       1.0079
     372     2 H    1   13.531460   13.551527    8.078083      1.00       1.0079
     373     1 O    8    1.791838   14.453944   14.440961      6.00      15.9994
     374     2 H    1    1.271907   13.837583   15.033446      1.00       1.0079
     375     2 H    1    1.914054   13.958182   13.619800      1.00       1.0079



 PW_GRID: Information for grid number                                          1
 PW_GRID: Grid distributed over                                   128 processors
 PW_GRID: Real space group dimensions                                   128    1
 PW_GRID: the grid is blocked:                                                NO
 PW_GRID: Cutoff [a.u.]                                                    500.0
 PW_GRID: spherical cutoff:                                                   NO
 PW_GRID:   Bounds   1           -150     149                Points:         300
 PW_GRID:   Bounds   2           -150     149                Points:         300
 PW_GRID:   Bounds   3           -150     149                Points:         300
 PW_GRID: Volume element (a.u.^3)  0.9372E-03     Volume (a.u.^3)     25303.9229
 PW_GRID: Grid span                                                    FULLSPACE
 PW_GRID:   Distribution                         Average         Max         Min
 PW_GRID:   G-Vectors                           210937.5      211200      210900
 PW_GRID:   G-Rays                                 703.1         704         703
 PW_GRID:   Real Space Points                   210937.5      270000      180000

 PW_GRID: Information for grid number                                          2
 PW_GRID: Grid distributed over                                   128 processors
 PW_GRID: Real space group dimensions                                   128    1
 PW_GRID: the grid is blocked:                                                NO
 PW_GRID: Cutoff [a.u.]                                                    166.7
 PW_GRID: spherical cutoff:                                                   NO
 PW_GRID:   Bounds   1            -90      89                Points:         180
 PW_GRID:   Bounds   2            -90      89                Points:         180
 PW_GRID:   Bounds   3            -90      89                Points:         180
 PW_GRID: Volume element (a.u.^3)  0.4339E-02     Volume (a.u.^3)     25303.9229
 PW_GRID: Grid span                                                    FULLSPACE
 PW_GRID:   Distribution                         Average         Max         Min
 PW_GRID:   G-Vectors                            45562.5       45720       45360
 PW_GRID:   G-Rays                                 253.1         254         252
 PW_GRID:   Real Space Points                    45562.5       64800       32400

 PW_GRID: Information for grid number                                          3
 PW_GRID: Grid distributed over                                   128 processors
 PW_GRID: Real space group dimensions                                     8   16
 PW_GRID: the grid is blocked:                                                NO
 PW_GRID: Cutoff [a.u.]                                                     55.6
 PW_GRID: spherical cutoff:                                                   NO
 PW_GRID:   Bounds   1            -50      49                Points:         100
 PW_GRID:   Bounds   2            -50      49                Points:         100
 PW_GRID:   Bounds   3            -50      49                Points:         100
 PW_GRID: Volume element (a.u.^3)  0.2530E-01     Volume (a.u.^3)     25303.9229
 PW_GRID: Grid span                                                    FULLSPACE
 PW_GRID:   Distribution                         Average         Max         Min
 PW_GRID:   G-Vectors                             7812.5        7900        7700
 PW_GRID:   G-Rays                                  78.1          79          77
 PW_GRID:   Real Space Points                     7812.5        9100        7200

 PW_GRID: Information for grid number                                          4
 PW_GRID: Grid distributed over                                   128 processors
 PW_GRID: Real space group dimensions                                     8   16
 PW_GRID: the grid is blocked:                                                NO
 PW_GRID: Cutoff [a.u.]                                                     18.5
 PW_GRID: spherical cutoff:                                                   NO
 PW_GRID:   Bounds   1            -30      29                Points:          60
 PW_GRID:   Bounds   2            -30      29                Points:          60
 PW_GRID:   Bounds   3            -30      29                Points:          60
 PW_GRID: Volume element (a.u.^3)  0.1171         Volume (a.u.^3)     25303.9229
 PW_GRID: Grid span                                                    FULLSPACE
 PW_GRID:   Distribution                         Average         Max         Min
 PW_GRID:   G-Vectors                             1687.5        1740        1620
 PW_GRID:   G-Rays                                  28.1          29          27
 PW_GRID:   Real Space Points                     1687.5        1920        1260

 PW_GRID: Information for grid number                                          5
 PW_GRID: Grid distributed over                                   128 processors
 PW_GRID: Real space group dimensions                                     8   16
 PW_GRID: the grid is blocked:                                                NO
 PW_GRID: Cutoff [a.u.]                                                      6.2
 PW_GRID: spherical cutoff:                                                   NO
 PW_GRID:   Bounds   1            -18      17                Points:          36
 PW_GRID:   Bounds   2            -18      17                Points:          36
 PW_GRID:   Bounds   3            -18      17                Points:          36
 PW_GRID: Volume element (a.u.^3)  0.5424         Volume (a.u.^3)     25303.9229
 PW_GRID: Grid span                                                    FULLSPACE
 PW_GRID:   Distribution                         Average         Max         Min
 PW_GRID:   G-Vectors                              364.5         396         324
 PW_GRID:   G-Rays                                  10.1          11           9
 PW_GRID:   Real Space Points                      364.5         540         288

 RS_GRID: Information for grid number                                          1
 RS_GRID:   Bounds   1           -150     149                Points:         300
 RS_GRID:   Bounds   2           -150     149                Points:         300
 RS_GRID:   Bounds   3           -150     149                Points:         300
 RS_GRID: Real space distribution over                                  4 groups
 RS_GRID: Real space distribution along direction                              1
 RS_GRID: Border size                                                         20
 RS_GRID: Real space distribution over                                  4 groups
 RS_GRID: Real space distribution along direction                              2
 RS_GRID: Border size                                                         20
 RS_GRID: Real space distribution over                                  8 groups
 RS_GRID: Real space distribution along direction                              3
 RS_GRID: Border size                                                         20
 RS_GRID:   Distribution                         Average         Max         Min
 RS_GRID:   Planes                                 115.0         115         115
 RS_GRID:   Distribution                         Average         Max         Min
 RS_GRID:   Planes                                 115.0         115         115
 RS_GRID:   Distribution                         Average         Max         Min
 RS_GRID:   Planes                                  77.5          78          77

 RS_GRID: Information for grid number                                          2
 RS_GRID:   Bounds   1            -90      89                Points:         180
 RS_GRID:   Bounds   2            -90      89                Points:         180
 RS_GRID:   Bounds   3            -90      89                Points:         180
 RS_GRID: Real space distribution over                                  4 groups
 RS_GRID: Real space distribution along direction                              1
 RS_GRID: Border size                                                         18
 RS_GRID: Real space distribution over                                  4 groups
 RS_GRID: Real space distribution along direction                              2
 RS_GRID: Border size                                                         18
 RS_GRID: Real space distribution over                                  8 groups
 RS_GRID: Real space distribution along direction                              3
 RS_GRID: Border size                                                         18
 RS_GRID:   Distribution                         Average         Max         Min
 RS_GRID:   Planes                                  81.0          81          81
 RS_GRID:   Distribution                         Average         Max         Min
 RS_GRID:   Planes                                  81.0          81          81
 RS_GRID:   Distribution                         Average         Max         Min
 RS_GRID:   Planes                                  58.5          59          58

 RS_GRID: Information for grid number                                          3
 RS_GRID:   Bounds   1            -50      49                Points:         100
 RS_GRID:   Bounds   2            -50      49                Points:         100
 RS_GRID:   Bounds   3            -50      49                Points:         100
 RS_GRID: Real space fully replicated
 RS_GRID: Group size                                                           1

 RS_GRID: Information for grid number                                          4
 RS_GRID:   Bounds   1            -30      29                Points:          60
 RS_GRID:   Bounds   2            -30      29                Points:          60
 RS_GRID:   Bounds   3            -30      29                Points:          60
 RS_GRID: Real space fully replicated
 RS_GRID: Group size                                                           1

 RS_GRID: Information for grid number                                          5
 RS_GRID:   Bounds   1            -18      17                Points:          36
 RS_GRID:   Bounds   2            -18      17                Points:          36
[...]

     Hotelling iter   1 1.00000000   0.101E+01       0.012      193.802
     Hotelling iter   2 1.00000000   0.356E+00       0.013      179.716
     Hotelling iter   3 1.00000000   0.851E-01       0.013      170.319
     Hotelling iter   4 1.00000000   0.827E-02       0.012      187.737
     Hotelling iter   5 1.00000000   0.111E-03       0.011      199.454
     Hotelling iter   6 1.00000000   0.280E-07       0.012      194.504
     Hotelling iter   7 1.00000000   0.319E-14       0.012      195.327
 Maximum norm of dE/dT:   1.20139475034321350E-003
 Grad orthogonality error:   3.51446203093114045E-005
 Step orthogonality error:   5.57034254788890581E-005
 ALMO SCF LS    12   -363.185418956943   0.000E+00   0.120E-02   0.140E+00    -0.23058     1.146
 VAR1: |B*X|:   0.14802114749957485     
 VAR1: |Q.X|:   0.14802114749957485     
 VAR1: |T0+Q.X|:   0.94726647740033709     

     Hotelling iter   1 1.00000000   0.101E+01       0.015      148.809
     Hotelling iter   2 1.00000000   0.356E+00       0.012      192.993
     Hotelling iter   3 1.00000000   0.851E-01       0.013      179.376
     Hotelling iter   4 1.00000000   0.827E-02       0.012      195.778
     Hotelling iter   5 1.00000000   0.111E-03       0.012      194.200
     Hotelling iter   6 1.00000000   0.280E-07       0.012      191.452
     Hotelling iter   7 1.00000000   0.310E-14       0.012      186.043
 Maximum norm of dE/dT:   6.21907456071439722E-004
 Grad orthogonality error:   2.57630108109133934E-005
 ....updating step direction....
 ....applying preconditioner....
 ....special case 1....
 Dir orthogonality error:   1.01598085687824368E-005
 ....final beta....  0.14530182525107377     
 Step orthogonality error:   1.57981524051082684E-005
 ALMO SCF CG    13   -363.185425923918  -0.873E-04   0.624E-03   0.113E-04     0.85688     1.451
 VAR1: |B*X|:   0.14808511513118711     
 VAR1: |Q.X|:   0.14808511513118711     
 VAR1: |T0+Q.X|:   0.94725507653960206     

     Hotelling iter   1 1.00000000   0.101E+01       0.012      193.468
     Hotelling iter   2 1.00000000   0.356E+00       0.011      200.422
     Hotelling iter   3 1.00000000   0.851E-01       0.013      180.977
     Hotelling iter   4 1.00000000   0.827E-02       0.012      189.370
     Hotelling iter   5 1.00000000   0.111E-03       0.012      192.770
     Hotelling iter   6 1.00000000   0.280E-07       0.012      193.384
     Hotelling iter   7 1.00000000   0.313E-14       0.012      195.098
 Maximum norm of dE/dT:   3.11357091433943378E-004
 Grad orthogonality error:   2.07792405893992047E-005
 ....updating step direction....
 ....applying preconditioner....
 ....special case 1....
 Dir orthogonality error:   5.05095171817075421E-006
 ....final beta....  0.22562483968765923     
 Step orthogonality error:   8.31835826427847739E-006
 ALMO SCF CG    14   -363.185439128703  -0.132E-04   0.313E-03   0.332E-02     0.89972     1.449
 VAR1: |B*X|:   0.14801149752481690     
 VAR1: |Q.X|:   0.14801149752481690     
 VAR1: |T0+Q.X|:   0.94725041083645301     

     Hotelling iter   1 1.00000000   0.101E+01       0.012      196.278
     Hotelling iter   2 1.00000000   0.356E+00       0.012      192.540
     Hotelling iter   3 1.00000000   0.851E-01       0.012      195.224
     Hotelling iter   4 1.00000000   0.827E-02       0.012      195.397
     Hotelling iter   5 1.00000000   0.111E-03       0.012      193.592
     Hotelling iter   6 1.00000000   0.280E-07       0.014      167.100
     Hotelling iter   7 1.00000000   0.316E-14       0.013      176.418
 Maximum norm of dE/dT:   1.40850921782405486E-004
 Grad orthogonality error:   4.45390086834034717E-006
 Step orthogonality error:   8.36687033029929575E-006
 ALMO SCF LS    15   -363.185442287392   0.000E+00   0.141E-03  -0.229E-01     0.04135     1.148
 VAR1: |B*X|:   0.14800811454587742     
 VAR1: |Q.X|:   0.14800811454587742     
 VAR1: |T0+Q.X|:   0.94725019643155361     

     Hotelling iter   1 1.00000000   0.101E+01       0.012      192.364
     Hotelling iter   2 1.00000000   0.356E+00       0.012      196.567
     Hotelling iter   3 1.00000000   0.851E-01       0.012      197.442
     Hotelling iter   4 1.00000000   0.827E-02       0.012      194.340
     Hotelling iter   5 1.00000000   0.111E-03       0.011      200.037
     Hotelling iter   6 1.00000000   0.280E-07       0.012      195.119
     Hotelling iter   7 1.00000000   0.316E-14       0.012      195.236
 Maximum norm of dE/dT:   1.61631912107405173E-004
 Grad orthogonality error:   4.14860313159935204E-006
 ....updating step direction....
 ....applying preconditioner....
 ....special case 1....
 Dir orthogonality error:   1.91804089652230657E-006
 ....final beta....  0.19221559777092467     
 Step orthogonality error:   3.52671238363618376E-006
 ALMO SCF CG    16   -363.185442293501  -0.316E-05   0.162E-03  -0.124E-06     0.98812     1.448
 VAR1: |B*X|:   0.14800299430221930     
 VAR1: |Q.X|:   0.14800299430221930     
 VAR1: |T0+Q.X|:   0.94724876198588215     

     Hotelling iter   1 1.00000000   0.101E+01       0.016      143.887
     Hotelling iter   2 1.00000000   0.356E+00       0.012      190.118
     Hotelling iter   3 1.00000000   0.851E-01       0.012      183.854
     Hotelling iter   4 1.00000000   0.827E-02       0.012      190.798
     Hotelling iter   5 1.00000000   0.111E-03       0.011      198.674
     Hotelling iter   6 1.00000000   0.280E-07       0.012      189.318
     Hotelling iter   7 1.00000000   0.319E-14       0.012      190.166
 Maximum norm of dE/dT:   1.11938464520167867E-004
 Grad orthogonality error:   1.77964491575852886E-006
 Step orthogonality error:   3.53605815521917724E-006
 ALMO SCF LS    17   -363.185442872387   0.000E+00   0.112E-03   0.696E-01    -0.12346     1.157
 VAR1: |B*X|:   0.14800363406243197     
 VAR1: |Q.X|:   0.14800363406243197     
 VAR1: |T0+Q.X|:   0.94724894121588155     

     Hotelling iter   1 1.00000000   0.101E+01       0.011      199.304
     Hotelling iter   2 1.00000000   0.356E+00       0.012      196.210
     Hotelling iter   3 1.00000000   0.851E-01       0.012      195.586
     Hotelling iter   4 1.00000000   0.827E-02       0.012      195.121
     Hotelling iter   5 1.00000000   0.111E-03       0.012      195.501
     Hotelling iter   6 1.00000000   0.280E-07       0.012      195.156
     Hotelling iter   7 1.00000000   0.317E-14       0.012      194.524
 Maximum norm of dE/dT:   7.77566909860139910E-005
 Grad orthogonality error:   1.68765588747946461E-006
 ....updating step direction....
 ....applying preconditioner....
 ....special case 1....
 Dir orthogonality error:   7.83980611940467354E-007
 ....final beta....  0.16022269864055078     
 Step orthogonality error:   1.30847193737181951E-006
 ALMO SCF CG    18   -363.185442884435  -0.591E-06   0.779E-04   0.326E-07     0.90789     1.450
 VAR1: |B*X|:   0.14799602768434328     
 VAR1: |Q.X|:   0.14799602768434328     
 VAR1: |T0+Q.X|:   0.94724884030509549     

     Hotelling iter   1 1.00000000   0.101E+01       0.012      195.812
     Hotelling iter   2 1.00000000   0.356E+00       0.011      198.182
     Hotelling iter   3 1.00000000   0.851E-01       0.012      194.005
     Hotelling iter   4 1.00000000   0.827E-02       0.011      202.266
     Hotelling iter   5 1.00000000   0.111E-03       0.011      199.495
     Hotelling iter   6 1.00000000   0.280E-07       0.012      194.873
     Hotelling iter   7 1.00000000   0.328E-14       0.011      197.576
 Maximum norm of dE/dT:   3.34172071683265157E-005
 Grad orthogonality error:   1.04083258601194453E-006
 ....updating step direction....
 ....applying preconditioner....
 ....special case 1....
 Dir orthogonality error:   4.37531978254635418E-007
 ....final beta....  0.19839111474191029     
 Step orthogonality error:   6.68707717257380160E-007
 ALMO SCF CG    19   -363.185442984112  -0.997E-07   0.334E-04  -0.499E-02     0.95328     1.445
 VAR1: |B*X|:   0.14799669355444220     
 VAR1: |Q.X|:   0.14799669355444220     
 VAR1: |T0+Q.X|:   0.94724911465185868     

     Hotelling iter   1 1.00000000   0.101E+01       0.015      153.231
     Hotelling iter   2 1.00000000   0.356E+00       0.012      185.180
     Hotelling iter   3 1.00000000   0.851E-01       0.012      186.983
     Hotelling iter   4 1.00000000   0.827E-02       0.012      185.263
     Hotelling iter   5 1.00000000   0.111E-03       0.012      195.086
     Hotelling iter   6 1.00000000   0.280E-07       0.012      195.428
     Hotelling iter   7 1.00000000   0.321E-14       0.011      197.812
 Maximum norm of dE/dT:   1.88447038293972343E-005
 Grad orthogonality error:   4.02356668469816401E-007
 Step orthogonality error:   6.70388984705531888E-007
 ALMO SCF LS    20   -363.185443006402   0.000E+00   0.188E-04  -0.942E-02     0.01853     1.149
 VAR1: |B*X|:   0.14799670649704805     
 VAR1: |Q.X|:   0.14799670649704805     
 VAR1: |T0+Q.X|:   0.94724911998437333     

     Hotelling iter   1 1.00000000   0.101E+01       0.012      188.843
     Hotelling iter   2 1.00000000   0.356E+00       0.012      193.009
     Hotelling iter   3 1.00000000   0.851E-01       0.012      196.431
     Hotelling iter   4 1.00000000   0.827E-02       0.012      195.124
     Hotelling iter   5 1.00000000   0.111E-03       0.011      201.355
     Hotelling iter   6 1.00000000   0.280E-07       0.012      194.979
     Hotelling iter   7 1.00000000   0.316E-14       0.012      195.962
 Maximum norm of dE/dT:   1.98605243781861024E-005
 Grad orthogonality error:   3.90711342085610765E-007
 ....updating step direction....
 ....applying preconditioner....
 ....special case 1....
 Dir orthogonality error:   1.71071130346845174E-007
 ....final beta....  0.25696155865611597     
 Step orthogonality error:   3.43343726014444737E-007
 ALMO SCF CG    21   -363.185443006410  -0.223E-07   0.198E-04  -0.574E-08     1.02040     1.454
 VAR1: |B*X|:   0.14800127808549363     
 VAR1: |Q.X|:   0.14800127808549363     
 VAR1: |T0+Q.X|:   0.94724934432690633     

     Hotelling iter   1 1.00000000   0.101E+01       0.012      196.571
     Hotelling iter   2 1.00000000   0.356E+00       0.012      195.439
     Hotelling iter   3 1.00000000   0.851E-01       0.012      195.513
     Hotelling iter   4 1.00000000   0.827E-02       0.012      192.931
     Hotelling iter   5 1.00000000   0.111E-03       0.012      195.233
     Hotelling iter   6 1.00000000   0.280E-07       0.012      194.850
     Hotelling iter   7 1.00000000   0.324E-14       0.012      194.915
 Maximum norm of dE/dT:   1.29410880933427895E-005
 Grad orthogonality error:   2.05284142525204353E-007
 Step orthogonality error:   3.43888921471899784E-007
 ALMO SCF LS    22   -363.185443011144   0.000E+00   0.129E-04   0.750E-01    -0.14456     1.148
 VAR1: |B*X|:   0.14800063042803877     
 VAR1: |Q.X|:   0.14800063042803877     
 VAR1: |T0+Q.X|:   0.94724931254427414     

     Hotelling iter   1 1.00000000   0.101E+01       0.016      145.960
     Hotelling iter   2 1.00000000   0.356E+00       0.012      192.687
     Hotelling iter   3 1.00000000   0.851E-01       0.012      196.811
     Hotelling iter   4 1.00000000   0.827E-02       0.012      195.042
     Hotelling iter   5 1.00000000   0.111E-03       0.012      190.631
     Hotelling iter   6 1.00000000   0.280E-07       0.012      182.962
     Hotelling iter   7 1.00000000   0.312E-14       0.012      196.696
 Maximum norm of dE/dT:   8.29407727100380673E-006
 Grad orthogonality error:   1.38901695439131911E-007
 ALMO SCF LS    23   -363.185443011277   0.000E+00   0.829E-05   0.750E-01    -0.14456     0.984
 _ENERGY-0:   -2151.4316719841918     
 _ENERGY-D:   -1.4753204397367714     
 _ENERGY-F:   -2152.9069924239284     

 DECOMPOSITION OF THE DELOCALIZATION ENERGY

 ENERGY| Total FORCE_EVAL ( QS ) energy (a.u.):            -2151.431672026957585


 -------------------------------------------------------------------------------
 ----                             MULTIGRID INFO                            ----
 -------------------------------------------------------------------------------
 count for grid        1:        1664364          cutoff [a.u.]          500.00
 count for grid        2:        1514876          cutoff [a.u.]          166.67
 count for grid        3:        1403637          cutoff [a.u.]           55.56
 count for grid        4:        1380749          cutoff [a.u.]           18.52
 count for grid        5:        2634763          cutoff [a.u.]            6.17
 total gridlevel count  :        8598389

 -------------------------------------------------------------------------------
 -                                                                             -
 -                         MESSAGE PASSING PERFORMANCE                         -
 -                                                                             -
 -------------------------------------------------------------------------------

 ROUTINE             CALLS  TOT TIME [s]  AVE VOLUME [Bytes]  PERFORMANCE [MB/s]
 MP_Group                5         0.000
 MP_Bcast               50         0.010            4195123.            21012.39
 MP_Allreduce          213         1.110               7780.                1.49
 MP_Gather               4         0.005               3584.                2.65
 MP_Sync                 5         0.000
 MP_Alltoall           723        26.032            4940780.              137.22
 MP_ISendRecv        19812         0.053              30827.            11539.54
 MP_Wait             24222         6.492
 MP_ISend             3990         0.218             172551.             3165.42
 MP_IRecv             3990         0.174             172416.             3959.34
 -------------------------------------------------------------------------------


 -------------------------------------------------------------------------------
 -                                                                             -
 -                           R E F E R E N C E S                               -
 -                                                                             -
 -------------------------------------------------------------------------------
 
 CP2K version 2.2.268 (Development Version), the CP2K developers group (2011).
 CP2K is freely available from http://cp2k.berlios.de/ .

 VandeVondele, J; Hutter, J. 
 JOURNAL OF CHEMICAL PHYSICS, 127 (11), 114105 (2007). 
 Gaussian basis sets for accurate calculations on molecular systems in
 gas and condensed phases.
 http://dx.doi.org/10.1063/1.2770708


 Krack, M. 
 THEORETICAL CHEMISTRY ACCOUNTS, 114 (1-3), 145-152 (2005). 
 Pseudopotentials for H to Kr optimized for gradient-corrected
 exchange-correlation functionals.
 http://dx.doi.org/10.1007/s00214-005-0655-y


 VandeVondele, J; Krack, M; Mohamed, F; Parrinello, M; Chassaing, T;
 Hutter, J. COMPUTER PHYSICS COMMUNICATIONS, 167 (2), 103-128 (2005). 
 QUICKSTEP: Fast and accurate density functional calculations using a
 mixed Gaussian and plane waves approach.
 http://dx.doi.org/10.1016/j.cpc.2004.12.014


 Frigo, M; Johnson, SG. 
 PROCEEDINGS OF THE IEEE, 93 (2), 216-231 (2005). 
 The design and implementation of FFTW3.
 http://dx.doi.org/10.1109/JPROC.2004.840301


 Hartwigsen, C; Goedecker, S; Hutter, J. 
 PHYSICAL REVIEW B, 58 (7), 3641-3662 (1998). 
 Relativistic separable dual-space Gaussian pseudopotentials from H to Rn.
 http://dx.doi.org/10.1103/PhysRevB.58.3641


 Lippert, G; Hutter, J; Parrinello, M. 
 MOLECULAR PHYSICS, 92 (3), 477-487 (1997). 
 A hybrid Gaussian and plane wave density functional scheme.
 http://dx.doi.org/10.1080/002689797170220


 Goedecker, S; Teter, M; Hutter, J. 
 PHYSICAL REVIEW B, 54 (3), 1703-1710 (1996). 
 Separable dual-space Gaussian pseudopotentials.
 http://dx.doi.org/10.1103/PhysRevB.54.1703


 BECKE, AD. PHYSICAL REVIEW A, 38 (6), 3098-3100 (1988). 
 DENSITY-FUNCTIONAL EXCHANGE-ENERGY APPROXIMATION WITH CORRECT
 ASYMPTOTIC-BEHAVIOR.
 http://dx.doi.org/10.1103/PhysRevA.38.3098


 LEE, CT; YANG, WT; PARR, RG. 
 PHYSICAL REVIEW B, 37 (2), 785-789 (1988). 
 DEVELOPMENT OF THE COLLE-SALVETTI CORRELATION-ENERGY FORMULA INTO A
 FUNCTIONAL OF THE ELECTRON-DENSITY.
 http://dx.doi.org/10.1103/PhysRevB.37.785


 -------------------------------------------------------------------------------
 -                                                                             -
 -                                T I M I N G                                  -
 -                                                                             -
 -------------------------------------------------------------------------------
 SUBROUTINE                       CALLS  ASD         SELF TIME        TOTAL TIME
                                              AVERAGE  MAXIMUM  AVERAGE  MAXIMUM
 CP2K                                 1  1.0    0.031    0.038  338.834  338.895
 qs_energies_scf                      1  2.0    0.000    0.001  338.237  338.308
 almo_entry_scf                       1  3.0    0.000    0.000  334.037  334.107
 almo_scf_main                        1  4.0    0.000    0.001  276.533  276.586
 almo_scf_dm_to_ks                   25  6.0    0.000    0.000  271.504  271.760
 almo_scf_main_block_diagonal         1  5.0    0.000    0.001  239.061  239.108
 qs_ks_update_qs_env                 26  7.0    0.001    0.001  165.099  165.347
 qs_ks_build_kohn_sham_matrix        26  8.0    0.032    0.038  165.067  165.315
 sum_up_and_integrate                26  9.0    0.161    0.214  133.370  133.612
 integrate_v_rspace                  26 10.0  116.065  118.594  133.208  133.464
 qs_rho_update_rho                   26  7.0    0.000    0.000  115.881  115.907
 calculate_rho_elec                  26  8.0   95.329   98.584  115.881  115.907
 almo_scf_main_quenched_almos         2  5.0    0.037    0.056   83.318   83.347
 almo_post_scf                        1  4.0    0.001    0.001   45.885   45.908
 cp_dbcsr_multiply_d               1876  7.4    0.009    0.010   45.046   45.318
 fft_wrap_pw1pw2                    495 10.9    0.015    0.019   36.209   36.687
 fft_wrap_pw1pw2_500                287 11.9    2.165    2.624   34.349   34.812
 fft3d_ps                           495 12.9    9.770   11.637   30.339   31.021
 qs_vxc_create                       26  9.0    0.002    0.002   27.507   27.647
 xc_vxc_pw_create                    26 10.0    0.449    0.529   27.505   27.646
 cp_dbcsr_mult_NS_NR                272  7.7   24.725   25.488   24.731   25.495
 density_rs2pw                       26  9.0    0.664    0.900   15.482   17.688
 rs_pw_transfer                     261 10.9    0.008    0.019   12.918   15.352
 xc_rho_set_and_dset_create          26 11.0    1.724    2.194   14.090   14.853
 almo_scf_t_to_p                     49  6.4    0.001    0.001   13.312   13.607
 distribute_matrix                   52 10.0   10.085   12.621   10.300   12.691
 almo_scf_init                        1  4.0    0.000    0.000   11.618   11.630
 almo_scf_init_qs                     1  5.0    0.180    0.181   11.313   11.325
 x_to_yz                            182 14.1   10.702   11.032   10.702   11.032
 yz_to_x                            157 13.8    9.472   10.611    9.472   10.611
 potential_pw2rs                     26 11.0    0.017    0.019    9.845    9.879
 rs_pw_transfer_RS2PW_500            27 10.8    4.413    6.933    4.413    6.933
 -------------------------------------------------------------------------------

  **** **** ******  **  PROGRAM ENDED AT                 2012-06-12 21:58:29.365
 ***** ** ***  *** **   PROGRAM RAN ON                                  nid00029
 **    ****   ******    PROGRAM RAN BY                                  root ;-)
 ***** **    ** ** **   PROGRAM PROCESS ID                                 19262
  **** **  *******  **  PROGRAM STOPPED IN /scratch/weisshorn/rustamr/e298-1.304
                                           388
Application 983407 resources: utime ~41937s, stime ~1502s
