
  **** **** ******  **  PROGRAM STARTED AT               2012-06-12 21:58:35.373
 ***** ** ***  *** **   PROGRAM STARTED ON                              nid00029
 **    ****   ******    PROGRAM STARTED BY                              root ;-)
 ***** **    ** ** **   PROGRAM PROCESS ID                                 19332
  **** **  *******  **  PROGRAM STARTED IN /scratch/weisshorn/rustamr/e298-1.304
                                           388

 CP2K| version string:                CP2K version 2.2.268 (Development Version)
 CP2K| is freely available from                          http://cp2k.berlios.de/
 CP2K| Program compiled at                         Sun May 27 15:14:38 CEST 2012
 CP2K| Program compiled on                                                 rosa5
 CP2K| Program compiled for                                    rosa-new-gfortran
 CP2K| Last CVS entry                xas_tp_scf.F/1.101/Wed Jun 29 13:43:33 2011
 CP2K| Input file name                                           bulk.090016.inp

 GLOBAL| Force Environment number                                              1
 GLOBAL| Basis set file name            /users/rustamr/dev/cp2k/tests/QS/BASIS_M
 GLOBAL| Geminal file name                                         BASIS_GEMINAL
 GLOBAL| Potential file name            /users/rustamr/dev/cp2k/tests/QS/GTH_POT
 GLOBAL| MM Potential file name                                     MM_POTENTIAL
 GLOBAL| Coordinate file name                                      __STD_INPUT__
 GLOBAL| Method name                                                        CP2K
 GLOBAL| Project name                                                       bulk
 GLOBAL| Preferred FFT library                                             FFTW3
 GLOBAL| Run type                                                         ENERGY
 GLOBAL| All-to-all communication in single precision                          F
 GLOBAL| FFTs using library dependent lengths                                  F
 GLOBAL| Global print level                                               MEDIUM
 GLOBAL| Total number of message passing processes                           128
 GLOBAL| Number of threads for this process                                    1
 GLOBAL| This output is from process                                           0

 MEMORY| system memory details [Kb]
 MEMORY|                        rank 0           min           max       average
 MEMORY| MemTotal             33082792      33082792      33082792      33082792
 MEMORY| MemFree              30721940      30717412      30726424      30722716
 MEMORY| Buffers                     0             0             0             0
 MEMORY| Cached                 106616        105416        107672        106539
 MEMORY| Slab                   193520        192368        193520        193016
 MEMORY| SReclaimable             4464          4464          4780          4594
 MEMORY| MemLikelyFree        30833020      30828288      30837876      30833850

 DBCSR| Multiplication driver                                                SMM
 DBCSR| Multiplication stack size                                           1000
 DBCSR| Use subcommunicators                                                   F
 DBCSR| Use MPI combined types                                                 F
 DBCSR| Use MPI memory allocation                                              T


 *** Fundamental physical constants (SI units) ***

 *** Literature: B. J. Mohr and B. N. Taylor,
 ***             CODATA recommended values of the fundamental physical
 ***             constants: 2006, Web Version 5.1
 ***             http://physics.nist.gov/constants

 Speed of light in vacuum [m/s]                             2.99792458000000E+08
 Magnetic constant or permeability of vacuum [N/A**2]       1.25663706143592E-06
 Electric constant or permittivity of vacuum [F/m]          8.85418781762039E-12
 Planck constant (h) [J*s]                                  6.62606896000000E-34
 Planck constant (h-bar) [J*s]                              1.05457162825177E-34
 Elementary charge [C]                                      1.60217648700000E-19
 Electron mass [kg]                                         9.10938215000000E-31
 Electron g factor [ ]                                     -2.00231930436220E+00
 Proton mass [kg]                                           1.67262163700000E-27
 Fine-structure constant                                    7.29735253760000E-03
 Rydberg constant [1/m]                                     1.09737315685270E+07
 Avogrado constant [1/mol]                                  6.02214179000000E+23
 Boltzmann constant [J/K]                                   1.38065040000000E-23
 Atomic mass unit [kg]                                      1.66053878200000E-27
 Bohr radius [m]                                            5.29177208590000E-11

 *** Conversion factors ***

 [u] -> [a.u.]                                              1.82288848426455E+03
 [Angstrom] -> [Bohr] = [a.u.]                              1.88972613288564E+00
 [a.u.] = [Bohr] -> [Angstrom]                              5.29177208590000E-01
 [a.u.] -> [s]                                              2.41888432650478E-17
 [a.u.] -> [fs]                                             2.41888432650478E-02
 [a.u.] -> [J]                                              4.35974393937059E-18
 [a.u.] -> [K]                                              3.15774647902944E+05
 [a.u.] -> [kJ/mol]                                         2.62549961709828E+03
 [a.u.] -> [kcal/mol]                                       6.27509468713739E+02
 [a.u.] -> [Pa]                                             2.94210107994716E+13
 [a.u.] -> [bar]                                            2.94210107994716E+08
 [a.u.] -> [atm]                                            2.90362800883016E+08
 [a.u.] -> [eV]                                             2.72113838565563E+01
 [a.u.] -> [Hz]                                             6.57968392072181E+15
 [a.u.] -> [1/cm] (wave numbers)                            2.19474631370540E+05
 [a.u./Bohr**2] -> [1/cm]                                   5.14048714338585E+03
 

 CELL| Volume [angstrom^3]:                                             3749.654
 CELL| Vector a [angstrom]:      15.536     0.000     0.000    |a| =      15.536
 CELL| Vector b [angstrom]:       0.000    15.536     0.000    |b| =      15.536
 CELL| Vector c [angstrom]:       0.000     0.000    15.536    |c| =      15.536
 CELL| Angle (b,c), alpha [degree]:                                       90.000
 CELL| Angle (a,c), beta  [degree]:                                       90.000
 CELL| Angle (a,b), gamma [degree]:                                       90.000

 CELL_REF| Volume [angstrom^3]:                                         3749.654
 CELL_REF| Vector a [angstrom    15.536     0.000     0.000    |a| =      15.536
 CELL_REF| Vector b [angstrom     0.000    15.536     0.000    |b| =      15.536
 CELL_REF| Vector c [angstrom     0.000     0.000    15.536    |c| =      15.536
 CELL_REF| Angle (b,c), alpha [degree]:                                   90.000
 CELL_REF| Angle (a,c), beta  [degree]:                                   90.000
 CELL_REF| Angle (a,b), gamma [degree]:                                   90.000

 CELL_TOP| Volume [angstrom^3]:                                         3749.654
 CELL_TOP| Vector a [angstrom    15.536     0.000     0.000    |a| =      15.536
 CELL_TOP| Vector b [angstrom     0.000    15.536     0.000    |b| =      15.536
 CELL_TOP| Vector c [angstrom     0.000     0.000    15.536    |c| =      15.536
 CELL_TOP| Angle (b,c), alpha [degree]:                                   90.000
 CELL_TOP| Angle (a,c), beta  [degree]:                                   90.000
 CELL_TOP| Angle (a,b), gamma [degree]:                                   90.000

 GENERATE|  Preliminary Number of Bonds generated:                           250
 GENERATE|  Achieved consistency in connectivity generation.
 GENERATE|  Number of Bonds generated:                                       250
 REORDER |  
 REORDER |  Reordering Molecules. The Reordering of molecules will override all
 REORDER |  information regarding molecule names and residue names.
 REORDER |  New ones will be provided on the basis of the connectivity!
 REORDER |  Number of unique molecules found:      1.
 REORDER |  

 GENERATE|  Preliminary Number of Bonds generated:                           250
 GENERATE|  Achieved consistency in connectivity generation.
 GENERATE|  Number of Bonds generated:                                       250
 GENERATE|  Preliminary Number of Bends generated:                           125
 GENERATE|  Number of Bends generated:                                       125
 GENERATE|  Number of UB generated:                                          125
 GENERATE|  Preliminary Number of Torsions generated:                          0
 GENERATE|  Number of Torsions generated:                                      0
 GENERATE|  Number of Impropers generated:                                     0
 GENERATE|  Number of 1-4 interactions generated:                              0

 *******************************************************************************
 *******************************************************************************
 **                                                                           **
 **     #####                         ##              ##                      **
 **    ##   ##            ##          ##              ##                      **
 **   ##     ##                       ##            ######                    **
 **   ##     ##  ##   ##  ##   #####  ##  ##   ####   ##    #####    #####    **
 **   ##     ##  ##   ##  ##  ##      ## ##   ##      ##   ##   ##  ##   ##   **
 **   ##  ## ##  ##   ##  ##  ##      ####     ###    ##   ######   ######    **
 **    ##  ###   ##   ##  ##  ##      ## ##      ##   ##   ##       ##        **
 **     #######   #####   ##   #####  ##  ##  ####    ##    #####   ##        **
 **           ##                                                    ##        **
 **                                                                           **
 **                                                ... make the atoms dance   **
 **                                                                           **
 **            Copyright (C) by CP2K Developers Group (2000 - 2011)           **
 **                                                                           **
 *******************************************************************************

 DFT| Spin restricted Kohn-Sham (RKS) calculation                            RKS
 DFT| Multiplicity                                                             1
 DFT| Number of spin states                                                    1
 DFT| Charge                                                                   0
 DFT| Self-interaction correction (SIC)                                       NO
 DFT| Cutoffs: density                                              1.000000E-10
 DFT|          gradient                                             1.000000E-10
 DFT|          tau                                                  1.000000E-10
 DFT|          cutoff_smoothing_range                               0.000000E+00
 DFT| XC density smoothing                                                  NONE
 DFT| XC derivatives                                                          PW
 FUNCTIONAL| ROUTINE=NEW
 FUNCTIONAL| BECKE88:
 FUNCTIONAL| A. Becke, Phys. Rev. A 38, 3098 (1988) {LDA version}
 FUNCTIONAL| LYP:
 FUNCTIONAL| C. Lee, W. Yang, R.G. Parr, Phys. Rev. B, 37, 785 (1988) {LDA versi
 FUNCTIONAL| on}

 QS| Method:                                                                 GPW
 QS| Density plane wave grid type                        NON-SPHERICAL FULLSPACE
 QS| Number of grid levels:                                                    5
 QS| Density cutoff [a.u.]:                                                500.0
 QS| Multi grid cutoff [a.u.]: 1) grid level                               500.0
 QS|                           2) grid level                               166.7
 QS|                           3) grid level                                55.6
 QS|                           4) grid level                                18.5
 QS|                           5) grid level                                 6.2
 QS| Grid level progression factor:                                          3.0
 QS| Relative density cutoff [a.u.]:                                        15.0
 QS| Consistent realspace mapping and integration 
 QS| Interaction thresholds: eps_pgf_orb:                                1.0E-05
 QS|                         eps_filter_matrix:                          0.0E+00
 QS|                         eps_core_charge:                            1.0E-12
 QS|                         eps_rho_gspace:                             1.0E-10
 QS|                         eps_rho_rspace:                             1.0E-10
 QS|                         eps_gvg_rspace:                             1.0E-05
 QS|                         eps_ppl:                                    1.0E-02
 QS|                         eps_ppnl:                                   1.0E-07


 ATOMIC KIND INFORMATION

  1. Atomic kind: O                                     Number of atoms:     125

     Orbital basis set information for                          TZV2P-MOLOPT-GTH

       Number of orbital shell sets:                                           1
       Number of orbital shells:                                               8
       Number of primitive Cartesian functions:                                7
       Number of Cartesian basis functions:                                   24
       Number of spherical basis functions:                                   22

       Normalised Cartesian orbitals:

                        Set   Shell   Orbital            Exponent    Coefficient

                          1       1    2s               12.015955      -0.284499
                                                         5.108150      -0.322498
                                                         2.048398       0.148191
                                                         0.832382       0.295475
                                                         0.352316       0.150829
                                                         0.142977       0.015788
                                                         0.046761      -0.000019

                          1       2    3s               12.015955       0.725622
                                                         5.108150       0.644384
                                                         2.048398      -0.157350
                                                         0.832382      -0.853528
                                                         0.352316       0.146068
                                                         0.142977       0.153978
                                                         0.046761       0.000658

                          1       3    4s               12.015955       1.228006
                                                         5.108150       1.271453
                                                         2.048398      -0.537390
                                                         0.832382      -1.759282
                                                         0.352316       1.533697
                                                         0.142977      -0.562509
                                                         0.046761       0.081954

                          1       4    3px              12.015955       1.192141
                                                         5.108150       1.354170
                                                         2.048398       0.897267
                                                         0.832382       0.408839
                                                         0.352316       0.116648
                                                         0.142977       0.022184
                                                         0.046761       0.000308
                          1       4    3py              12.015955       1.192141
                                                         5.108150       1.354170
                                                         2.048398       0.897267
                                                         0.832382       0.408839
                                                         0.352316       0.116648
                                                         0.142977       0.022184
                                                         0.046761       0.000308
                          1       4    3pz              12.015955       1.192141
                                                         5.108150       1.354170
                                                         2.048398       0.897267
                                                         0.832382       0.408839
                                                         0.352316       0.116648
                                                         0.142977       0.022184
                                                         0.046761       0.000308

                          1       5    4px              12.015955      -1.062381
                                                         5.108150      -1.285791
                                                         2.048398      -0.727000
                                                         0.832382      -0.522764
                                                         0.352316       0.182681
                                                         0.142977       0.087560
                                                         0.046761       0.000981
                          1       5    4py              12.015955      -1.062381
                                                         5.108150      -1.285791
                                                         2.048398      -0.727000
                                                         0.832382      -0.522764
                                                         0.352316       0.182681
                                                         0.142977       0.087560
                                                         0.046761       0.000981
                          1       5    4pz              12.015955      -1.062381
                                                         5.108150      -1.285791
                                                         2.048398      -0.727000
                                                         0.832382      -0.522764
                                                         0.352316       0.182681
                                                         0.142977       0.087560
                                                         0.046761       0.000981

                          1       6    5px              12.015955      -0.063722
                                                         5.108150       0.363638
                                                         2.048398       0.015152
                                                         0.832382      -0.083580
                                                         0.352316       0.692078
                                                         0.142977      -0.184312
                                                         0.046761       0.007664
                          1       6    5py              12.015955      -0.063722
                                                         5.108150       0.363638
                                                         2.048398       0.015152
                                                         0.832382      -0.083580
                                                         0.352316       0.692078
                                                         0.142977      -0.184312
                                                         0.046761       0.007664
                          1       6    5pz              12.015955      -0.063722
                                                         5.108150       0.363638
                                                         2.048398       0.015152
                                                         0.832382      -0.083580
                                                         0.352316       0.692078
                                                         0.142977      -0.184312
                                                         0.046761       0.007664

                          1       7    4dx2             12.015955       1.125955
                                                         5.108150       1.160468
                                                         2.048398       0.999335
                                                         0.832382       0.756334
                                                         0.352316       0.048604
                                                         0.142977       0.010378
                                                         0.046761      -0.000027
                          1       7    4dxy             12.015955       1.950212
                                                         5.108150       2.009990
                                                         2.048398       1.730899
                                                         0.832382       1.310009
                                                         0.352316       0.084185
                                                         0.142977       0.017974
                                                         0.046761      -0.000046
                          1       7    4dxz             12.015955       1.950212
                                                         5.108150       2.009990
                                                         2.048398       1.730899
                                                         0.832382       1.310009
                                                         0.352316       0.084185
                                                         0.142977       0.017974
                                                         0.046761      -0.000046
                          1       7    4dy2             12.015955       1.125955
                                                         5.108150       1.160468
                                                         2.048398       0.999335
                                                         0.832382       0.756334
                                                         0.352316       0.048604
                                                         0.142977       0.010378
                                                         0.046761      -0.000027
                          1       7    4dyz             12.015955       1.950212
                                                         5.108150       2.009990
                                                         2.048398       1.730899
                                                         0.832382       1.310009
                                                         0.352316       0.084185
                                                         0.142977       0.017974
                                                         0.046761      -0.000046
                          1       7    4dz2             12.015955       1.125955
                                                         5.108150       1.160468
                                                         2.048398       0.999335
                                                         0.832382       0.756334
                                                         0.352316       0.048604
                                                         0.142977       0.010378
                                                         0.046761      -0.000027

                          1       8    5dx2             12.015955      -2.135425
                                                         5.108150       0.581743
                                                         2.048398      -1.302492
                                                         0.832382       0.098118
                                                         0.352316       0.292085
                                                         0.142977      -0.022029
                                                         0.046761      -0.003795
                          1       8    5dxy             12.015955      -3.698665
                                                         5.108150       1.007608
                                                         2.048398      -2.255983
                                                         0.832382       0.169945
                                                         0.352316       0.505906
                                                         0.142977      -0.038155
                                                         0.046761      -0.006574
                          1       8    5dxz             12.015955      -3.698665
                                                         5.108150       1.007608
                                                         2.048398      -2.255983
                                                         0.832382       0.169945
                                                         0.352316       0.505906
                                                         0.142977      -0.038155
                                                         0.046761      -0.006574
                          1       8    5dy2             12.015955      -2.135425
                                                         5.108150       0.581743
                                                         2.048398      -1.302492
                                                         0.832382       0.098118
                                                         0.352316       0.292085
                                                         0.142977      -0.022029
                                                         0.046761      -0.003795
                          1       8    5dyz             12.015955      -3.698665
                                                         5.108150       1.007608
                                                         2.048398      -2.255983
                                                         0.832382       0.169945
                                                         0.352316       0.505906
                                                         0.142977      -0.038155
                                                         0.046761      -0.006574
                          1       8    5dz2             12.015955      -2.135425
                                                         5.108150       0.581743
                                                         2.048398      -1.302492
                                                         0.832382       0.098118
                                                         0.352316       0.292085
                                                         0.142977      -0.022029
                                                         0.046761      -0.003795

     Potential information for                                       GTH-BLYP-q6

       Description:                       Goedecker-Teter-Hutter pseudopotential
                                           Goedecker et al., PRB 54, 1703 (1996)
                                          Hartwigsen et al., PRB 58, 3641 (1998)
                                                      Krack, TCA 114, 145 (2005)

       Gaussian exponent of the core charge distribution:               8.438331
       Electronic configuration (s p d ...):                               2   4

       Parameters of the local part of the GTH pseudopotential:

                          rloc        C1          C2          C3          C4
                        0.243420  -16.991892    2.566142

       Parameters of the non-local part of the GTH pseudopotential:

                   l      r(l)      h(i,j,l)

                   0    0.220831   18.388851
                   1    0.217201

  2. Atomic kind: H                                     Number of atoms:     250

     Orbital basis set information for                          TZV2P-MOLOPT-GTH

       Number of orbital shell sets:                                           1
       Number of orbital shells:                                               5
       Number of primitive Cartesian functions:                                7
       Number of Cartesian basis functions:                                    9
       Number of spherical basis functions:                                    9

       Normalised Cartesian orbitals:

                        Set   Shell   Orbital            Exponent    Coefficient

                          1       1    2s               11.478000       0.129129
                                                         3.700759       0.177012
                                                         1.446884       0.141285
                                                         0.716815       0.245670
                                                         0.247919       0.094768
                                                         0.066918       0.004062
                                                         0.021708      -0.000053

                          1       2    3s               11.478000      -0.079256
                                                         3.700759      -0.152992
                                                         1.446884       0.015066
                                                         0.716815      -0.331234
                                                         0.247919       0.210690
                                                         0.066918       0.058630
                                                         0.021708      -0.003429

                          1       3    4s               11.478000      -0.246880
                                                         3.700759       0.023016
                                                         1.446884      -1.109374
                                                         0.716815       1.524652
                                                         0.247919      -0.227968
                                                         0.066918      -0.037343
                                                         0.021708       0.005696

                          1       4    3px              11.478000       0.325290
                                                         3.700759       0.187466
                                                         1.446884       0.443300
                                                         0.716815       0.267738
                                                         0.247919       0.088285
                                                         0.066918       0.019092
                                                         0.021708       0.000629
                          1       4    3py              11.478000       0.325290
                                                         3.700759       0.187466
                                                         1.446884       0.443300
                                                         0.716815       0.267738
                                                         0.247919       0.088285
                                                         0.066918       0.019092
                                                         0.021708       0.000629
                          1       4    3pz              11.478000       0.325290
                                                         3.700759       0.187466
                                                         1.446884       0.443300
                                                         0.716815       0.267738
                                                         0.247919       0.088285
                                                         0.066918       0.019092
                                                         0.021708       0.000629

                          1       5    4px              11.478000      -1.727188
                                                         3.700759      -0.598393
                                                         1.446884      -3.813128
                                                         0.716815       1.901151
                                                         0.247919      -0.262425
                                                         0.066918       0.006339
                                                         0.021708       0.007345
                          1       5    4py              11.478000      -1.727188
                                                         3.700759      -0.598393
                                                         1.446884      -3.813128
                                                         0.716815       1.901151
                                                         0.247919      -0.262425
                                                         0.066918       0.006339
                                                         0.021708       0.007345
                          1       5    4pz              11.478000      -1.727188
                                                         3.700759      -0.598393
                                                         1.446884      -3.813128
                                                         0.716815       1.901151
                                                         0.247919      -0.262425
                                                         0.066918       0.006339
                                                         0.021708       0.007345

     Potential information for                                       GTH-BLYP-q1

       Description:                       Goedecker-Teter-Hutter pseudopotential
                                           Goedecker et al., PRB 54, 1703 (1996)
                                          Hartwigsen et al., PRB 58, 3641 (1998)
                                                      Krack, TCA 114, 145 (2005)

       Gaussian exponent of the core charge distribution:              12.500000
       Electronic configuration (s p d ...):                                   1

       Parameters of the local part of the GTH pseudopotential:

                          rloc        C1          C2          C3          C4
                        0.200000   -4.195961    0.730498


 MOLECULE KIND INFORMATION

     1. Molecule kind: H2O                       Number of atoms:              3
                     Atom         Atomic kind name
                        1                        O
                        2                        H
                        3                        H

        The name was automatically generated: F
        Number of molecules:    125
        Molecule list:                1         2         3         4         5
                                      6         7         8         9        10
                                     11        12        13        14        15
                                     16        17        18        19        20
                                     21        22        23        24        25
                                     26        27        28        29        30
                                     31        32        33        34        35
                                     36        37        38        39        40
                                     41        42        43        44        45
                                     46        47        48        49        50
                                     51        52        53        54        55
                                     56        57        58        59        60
                                     61        62        63        64        65
                                     66        67        68        69        70
                                     71        72        73        74        75
                                     76        77        78        79        80
                                     81        82        83        84        85
                                     86        87        88        89        90
                                     91        92        93        94        95
                                     96        97        98        99       100
                                    101       102       103       104       105
                                    106       107       108       109       110
                                    111       112       113       114       115
                                    116       117       118       119       120
                                    121       122       123       124       125
        Number of bonds:            2
        Number of bends:            1
        Number of Urey-Bradley:     1


 MOLECULE KIND SET INFORMATION               Total Number of bonds:          250
                                             Total Number of bends:          125
                                             Total Number of Urey-Bradley:   125
                                             Total Number of torsions:         0
                                             Total Number of improper:         0
                                              Total Number of opbends:         0


 TOTAL NUMBERS AND MAXIMUM NUMBERS

  Total number of            - Atomic kinds:                                   2
                             - Atoms:                                        375
                             - Shell sets:                                   375
                             - Shells:                                      2250
                             - Primitive Cartesian functions:               2625
                             - Cartesian basis functions:                   5250
                             - Spherical basis functions:                   5000

  Maximum angular momentum of- Orbital basis functions:                        2
                             - Local part of the GTH pseudopotential:          2
                             - Non-local part of the GTH pseudopotential:      0


 MODULE QUICKSTEP:  ATOMIC COORDINATES IN angstrom

  Atom  Kind  Element       X           Y           Z          Z(eff)       Mass

       1     1 O    8    2.213707    1.303590    1.168642      6.00      15.9994
       2     2 H    1    1.916313    1.166294    2.104976      1.00       1.0079
       3     2 H    1    1.384772    1.129704    0.603395      1.00       1.0079
       4     1 O    8    7.758506    2.921744   15.359217      6.00      15.9994
       5     2 H    1    8.127404    2.085964   15.681854      1.00       1.0079
       6     2 H    1    8.346185    3.523374   14.826941      1.00       1.0079
       7     1 O    8    2.905364    6.013054   10.786566      6.00      15.9994
       8     2 H    1    3.276607    6.603595   10.110052      1.00       1.0079
       9     2 H    1    3.579636    5.571614   11.352603      1.00       1.0079
      10     1 O    8    4.496790   15.347219   14.114296      6.00      15.9994
      11     2 H    1    4.970459   16.201548   14.404126      1.00       1.0079
      12     2 H    1    3.519090   15.367794   14.364778      1.00       1.0079
      13     1 O    8    7.926740    8.985709    5.035922      6.00      15.9994
      14     2 H    1    8.883219    8.840742    4.740978      1.00       1.0079
      15     2 H    1    7.981638    9.658040    5.761771      1.00       1.0079
      16     1 O    8    1.881192    4.394661    8.242367      6.00      15.9994
      17     2 H    1    1.551327    4.307051    7.316183      1.00       1.0079
      18     2 H    1    2.024346    5.345149    8.355626      1.00       1.0079
      19     1 O    8    4.521991    6.267236    6.408266      6.00      15.9994
      20     2 H    1    4.983370    5.523600    6.133939      1.00       1.0079
      21     2 H    1    4.874856    7.024867    5.826751      1.00       1.0079
      22     1 O    8    6.358690   10.327659    3.126244      6.00      15.9994
      23     2 H    1    5.537688   10.719076    3.592073      1.00       1.0079
      24     2 H    1    7.125327   10.164428    3.804240      1.00       1.0079
      25     1 O    8    5.685025    2.800675   13.574788      6.00      15.9994
      26     2 H    1    4.956752    2.950107   14.230947      1.00       1.0079
      27     2 H    1    6.434142    2.511183   14.156923      1.00       1.0079
      28     1 O    8   14.081052    3.335652    8.726872      6.00      15.9994
      29     2 H    1   13.385707    2.654598    8.926651      1.00       1.0079
      30     2 H    1   14.568110    3.598036    9.549801      1.00       1.0079
      31     1 O    8   14.411007   15.130764    3.963571      6.00      15.9994
      32     2 H    1   13.565990   14.912555    4.376750      1.00       1.0079
      33     2 H    1   14.213407   15.610974    3.097152      1.00       1.0079
      34     1 O    8    7.379556   12.755780   14.876664      6.00      15.9994
      35     2 H    1    7.666828   12.026610   14.309916      1.00       1.0079
      36     2 H    1    6.360008   12.706908   15.053472      1.00       1.0079
      37     1 O    8    6.268480    4.540035    9.394558      6.00      15.9994
      38     2 H    1    5.461949    4.595505    8.799603      1.00       1.0079
      39     2 H    1    6.136542    5.339859    9.937495      1.00       1.0079
      40     1 O    8   13.045095   13.361111    0.282336      6.00      15.9994
      41     2 H    1   13.491510   14.203513    0.591742      1.00       1.0079
      42     2 H    1   13.205695   12.722710    0.996140      1.00       1.0079
      43     1 O    8   10.160332    5.401133    9.061158      6.00      15.9994
      44     2 H    1   10.860530    5.580076    8.373605      1.00       1.0079
      45     2 H    1    9.387192    4.928865    8.570207      1.00       1.0079
      46     1 O    8    4.222625   12.847803    3.345511      6.00      15.9994
      47     2 H    1    4.236137   12.161735    4.028071      1.00       1.0079
      48     2 H    1    3.866125   12.418370    2.546957      1.00       1.0079
      49     1 O    8    8.492987    7.030711    7.368763      6.00      15.9994
      50     2 H    1    9.016656    6.530080    8.136754      1.00       1.0079
      51     2 H    1    8.724514    6.465610    6.620320      1.00       1.0079
      52     1 O    8   11.102585   11.538129    8.836369      6.00      15.9994
      53     2 H    1   10.224799   11.008383    8.879673      1.00       1.0079
      54     2 H    1   11.180236   12.249266    9.472552      1.00       1.0079
      55     1 O    8    0.432910    5.673369   13.714999      6.00      15.9994
      56     2 H    1    0.077891    5.632159   14.648787      1.00       1.0079
      57     2 H    1   -0.238627    5.063358   13.256602      1.00       1.0079
      58     1 O    8   13.357512    3.725300    0.602923      6.00      15.9994
      59     2 H    1   13.402435    3.470120    1.589505      1.00       1.0079
      60     2 H    1   14.205257    4.216842    0.491602      1.00       1.0079
      61     1 O    8   10.790001   11.489456   12.965372      6.00      15.9994
      62     2 H    1   11.501380   10.878306   13.175404      1.00       1.0079
      63     2 H    1   11.137698   11.823614   12.077723      1.00       1.0079
      64     1 O    8    3.399143    1.037833    9.521745      6.00      15.9994
      65     2 H    1    3.917243    1.857456    9.519186      1.00       1.0079
      66     2 H    1    3.858529    0.376218    8.985556      1.00       1.0079
      67     1 O    8    5.307383   10.302135   13.336449      6.00      15.9994
      68     2 H    1    6.300888   10.126978   13.314678      1.00       1.0079
      69     2 H    1    4.944070    9.559513   13.827191      1.00       1.0079
      70     1 O    8    0.120746    3.857227    5.851221      6.00      15.9994
      71     2 H    1    0.452424    3.401139    5.083860      1.00       1.0079
      72     2 H    1   -0.369439    3.164916    6.362635      1.00       1.0079
      73     1 O    8   14.947905   11.890020   10.597021      6.00      15.9994
      74     2 H    1   14.991646   11.126539   11.246034      1.00       1.0079
      75     2 H    1   15.729139   12.313745   11.073487      1.00       1.0079
      76     1 O    8    7.861638    2.669775    5.242053      6.00      15.9994
      77     2 H    1    8.380015    2.928572    4.449911      1.00       1.0079
      78     2 H    1    7.084326    3.241123    4.993065      1.00       1.0079
      79     1 O    8    4.894219   14.616316   11.277319      6.00      15.9994
      80     2 H    1    4.750280   14.684619   12.255642      1.00       1.0079
      81     2 H    1    4.416285   15.427855   10.948862      1.00       1.0079
      82     1 O    8    2.346404   13.096623    9.348586      6.00      15.9994
      83     2 H    1    2.810427   13.725210    8.736120      1.00       1.0079
      84     2 H    1    1.632033   12.636882    8.792928      1.00       1.0079
      85     1 O    8   11.352258    5.879690    0.555163      6.00      15.9994
      86     2 H    1   12.057399    5.234144    0.754708      1.00       1.0079
      87     2 H    1   11.924576    6.478849    0.010632      1.00       1.0079
      88     1 O    8    3.019528   11.323500    1.192495      6.00      15.9994
      89     2 H    1    3.317691   10.367008    1.099887      1.00       1.0079
      90     2 H    1    3.654276   11.877714    0.697017      1.00       1.0079
      91     1 O    8    5.187862    5.427327   12.448911      6.00      15.9994
      92     2 H    1    5.492006    4.497480   12.633155      1.00       1.0079
      93     2 H    1    5.964925    6.031536   12.172326      1.00       1.0079
      94     1 O    8    8.340166    3.897459    7.766977      6.00      15.9994
      95     2 H    1    7.950608    3.397221    6.995066      1.00       1.0079
      96     2 H    1    7.532500    4.018707    8.293289      1.00       1.0079
      97     1 O    8    2.778533    4.047950    4.015206      6.00      15.9994
      98     2 H    1    2.588637    4.989321    4.205608      1.00       1.0079
      99     2 H    1    2.737892    4.088248    3.031679      1.00       1.0079
     100     1 O    8    8.644045    9.610762    8.760834      6.00      15.9994
     101     2 H    1    7.815171    9.927401    9.099977      1.00       1.0079
     102     2 H    1    8.390454    8.759505    8.274188      1.00       1.0079
     103     1 O    8    9.794285    4.681543   14.232182      6.00      15.9994
     104     2 H    1   10.244622    5.069935   14.977198      1.00       1.0079
     105     2 H    1   10.400915    3.884922   14.094630      1.00       1.0079
     106     1 O    8    1.664878    9.953924    9.484745      6.00      15.9994
     107     2 H    1    0.809563   10.456978    9.709893      1.00       1.0079
     108     2 H    1    2.216126   10.324809   10.188385      1.00       1.0079
     109     1 O    8    8.052729   15.152209   13.844640      6.00      15.9994
     110     2 H    1    9.042154   15.024186   13.990103      1.00       1.0079
     111     2 H    1    7.743189   14.236937   13.970021      1.00       1.0079
     112     1 O    8    9.281467   14.320435    5.468161      6.00      15.9994
     113     2 H    1    8.365065   14.722511    5.435242      1.00       1.0079
     114     2 H    1    9.464711   14.067467    4.475499      1.00       1.0079
     115     1 O    8   14.236568    7.646015   10.465158      6.00      15.9994
     116     2 H    1   13.445477    7.032510   10.552113      1.00       1.0079
     117     2 H    1   13.758951    8.496921   10.251686      1.00       1.0079
     118     1 O    8    4.328712   11.103854    5.379395      6.00      15.9994
     119     2 H    1    3.627305   10.806538    6.014156      1.00       1.0079
     120     2 H    1    4.989187   11.517762    5.982127      1.00       1.0079
     121     1 O    8    1.142388    1.885406    3.748696      6.00      15.9994
     122     2 H    1    1.840178    2.583782    3.955011      1.00       1.0079
     123     2 H    1    1.559569    1.028301    3.946883      1.00       1.0079
     124     1 O    8   11.879856   12.065848    4.328463      6.00      15.9994
     125     2 H    1   12.605183   12.015284    3.620638      1.00       1.0079
     126     2 H    1   12.409674   12.578048    4.985331      1.00       1.0079
     127     1 O    8    9.704401    1.698112    8.764590      6.00      15.9994
     128     2 H    1    9.260036    2.579208    8.530168      1.00       1.0079
     129     2 H    1    9.001560    1.073853    9.007895      1.00       1.0079
     130     1 O    8    2.694811    5.063751    1.304014      6.00      15.9994
     131     2 H    1    3.146913    4.326504    0.839363      1.00       1.0079
     132     2 H    1    3.137670    5.875930    0.993043      1.00       1.0079
     133     1 O    8   14.054565   14.230264    9.498122      6.00      15.9994
     134     2 H    1   14.393148   13.528541   10.123271      1.00       1.0079
     135     2 H    1   14.877457   14.729848    9.264402      1.00       1.0079
     136     1 O    8   10.134832    8.294203   10.659232      6.00      15.9994
     137     2 H    1   10.228430    7.420848   10.151308      1.00       1.0079
     138     2 H    1    9.389561    8.766604   10.110133      1.00       1.0079
     139     1 O    8    0.278413   12.693842    0.148626      6.00      15.9994
     140     2 H    1    0.509151   11.767548    0.265682      1.00       1.0079
     141     2 H    1   -0.616255   12.561180   -0.230373      1.00       1.0079
     142     1 O    8   12.320396    8.817110    0.797401      6.00      15.9994
     143     2 H    1   11.373592    8.950312    1.081686      1.00       1.0079
     144     2 H    1   12.495902    9.132506   -0.108166      1.00       1.0079
     145     1 O    8   13.735719    2.953913    3.203962      6.00      15.9994
     146     2 H    1   14.685604    2.907167    3.386141      1.00       1.0079
     147     2 H    1   13.349429    3.344116    4.065681      1.00       1.0079
     148     1 O    8    8.753627   14.266444   11.333107      6.00      15.9994
     149     2 H    1    8.438463   14.766276   12.145464      1.00       1.0079
     150     2 H    1    8.293194   13.427739   11.446156      1.00       1.0079
     151     1 O    8   13.584764   11.258522    2.239534      6.00      15.9994
     152     2 H    1   14.328442   10.959318    2.757463      1.00       1.0079
     153     2 H    1   13.119201   10.478961    1.911573      1.00       1.0079
     154     1 O    8    3.431520    8.401629    0.731512      6.00      15.9994
     155     2 H    1    4.180883    8.160754    1.314649      1.00       1.0079
     156     2 H    1    3.520828    8.013251   -0.154807      1.00       1.0079
     157     1 O    8    0.854998    7.288115    8.744961      6.00      15.9994
     158     2 H    1    0.133882    6.962957    9.333584      1.00       1.0079
     159     2 H    1    1.274462    7.960193    9.338926      1.00       1.0079
     160     1 O    8    8.134549   11.727771    1.810649      6.00      15.9994
     161     2 H    1    7.347399   11.126768    1.917919      1.00       1.0079
     162     2 H    1    7.861903   12.274827    1.000072      1.00       1.0079
     163     1 O    8    9.772895    5.951133    5.091295      6.00      15.9994
     164     2 H    1    9.587182    6.255813    4.220223      1.00       1.0079
     165     2 H    1    9.681120    4.972696    5.053240      1.00       1.0079
     166     1 O    8    0.738207    9.010827    0.030782      6.00      15.9994
     167     2 H    1    0.134671    8.355187    0.527807      1.00       1.0079
     168     2 H    1    1.503752    9.100940    0.638390      1.00       1.0079
     169     1 O    8   10.672737   14.447354   14.173086      6.00      15.9994
     170     2 H    1   10.658506   13.532831   13.815747      1.00       1.0079
     171     2 H    1   11.198227   14.284578   14.947859      1.00       1.0079
     172     1 O    8    7.965162   12.023373    5.751475      6.00      15.9994
     173     2 H    1    8.663110   12.745395    5.814283      1.00       1.0079
     174     2 H    1    7.533789   12.233797    4.896650      1.00       1.0079
     175     1 O    8   13.216701    8.605948    7.034071      6.00      15.9994
     176     2 H    1   12.846799    7.747137    7.249685      1.00       1.0079
     177     2 H    1   12.791103    8.962700    7.844700      1.00       1.0079
     178     1 O    8    0.846077   12.951623    4.745568      6.00      15.9994
     179     2 H    1   -0.007342   13.353924    4.507368      1.00       1.0079
     180     2 H    1    0.727735   12.678010    5.630083      1.00       1.0079
     181     1 O    8   11.710451    6.216128    6.838390      6.00      15.9994
     182     2 H    1   12.175439    5.467418    6.328755      1.00       1.0079
     183     2 H    1   10.905175    6.304992    6.196427      1.00       1.0079
     184     1 O    8    2.151395   10.936312   14.077885      6.00      15.9994
     185     2 H    1    2.343353   11.395496   14.909770      1.00       1.0079
     186     2 H    1    1.775567   10.076946   14.325006      1.00       1.0079
     187     1 O    8    7.397909    4.633308    1.972819      6.00      15.9994
     188     2 H    1    7.575700    4.083990    1.129496      1.00       1.0079
     189     2 H    1    7.243503    5.567069    1.746394      1.00       1.0079
     190     1 O    8    8.165724    7.256381   14.305406      6.00      15.9994
     191     2 H    1    7.759234    7.291430   15.263849      1.00       1.0079
     192     2 H    1    8.281410    6.348174   13.979916      1.00       1.0079
     193     1 O    8   12.598255    5.532893   11.047402      6.00      15.9994
     194     2 H    1   12.949998    4.681480   11.400946      1.00       1.0079
     195     2 H    1   11.829571    5.249827   10.469057      1.00       1.0079
     196     1 O    8    0.269970    0.976950   14.832129      6.00      15.9994
     197     2 H    1    0.584056    1.720305   14.231559      1.00       1.0079
     198     2 H    1    0.667915    0.291910   14.305327      1.00       1.0079
     199     1 O    8    9.570913    3.304780    3.221432      6.00      15.9994
     200     2 H    1    8.933700    3.769121    2.634969      1.00       1.0079
     201     2 H    1    9.561827    2.354857    2.893052      1.00       1.0079
     202     1 O    8    0.682430    3.457545   10.492533      6.00      15.9994
     203     2 H    1    1.209120    3.898079    9.796050      1.00       1.0079
     204     2 H    1    0.678446    2.511446   10.122287      1.00       1.0079
     205     1 O    8    0.051453    5.561828    0.918805      6.00      15.9994
     206     2 H    1   -0.128130    6.424664    1.322670      1.00       1.0079
     207     2 H    1    0.934211    5.253129    1.250774      1.00       1.0079
     208     1 O    8   12.962359    9.610044   13.520655      6.00      15.9994
     209     2 H    1   13.877365    9.554426   13.154641      1.00       1.0079
     210     2 H    1   12.603503    8.672820   13.496136      1.00       1.0079
     211     1 O    8    0.203756    8.047851    6.108982      6.00      15.9994
     212     2 H    1    0.475533    7.837330    7.026077      1.00       1.0079
     213     2 H    1   -0.804936    7.990795    6.153058      1.00       1.0079
     214     1 O    8   12.788599    4.025979    5.825097      6.00      15.9994
     215     2 H    1   12.298536    3.227376    6.203974      1.00       1.0079
     216     2 H    1   13.669388    4.045930    6.316615      1.00       1.0079
     217     1 O    8   12.676847    1.690917   12.586424      6.00      15.9994
     218     2 H    1   12.485787    1.689112   11.609649      1.00       1.0079
     219     2 H    1   12.869569    0.754829   12.773207      1.00       1.0079
     220     1 O    8    4.533509    7.267791    2.940694      6.00      15.9994
     221     2 H    1    4.821530    8.031247    3.466556      1.00       1.0079
     222     2 H    1    3.686688    7.146943    3.462799      1.00       1.0079
     223     1 O    8   15.403667    9.495090   12.249519      6.00      15.9994
     224     2 H    1   16.324137    9.152432   12.382101      1.00       1.0079
     225     2 H    1   14.999791    8.928443   11.589610      1.00       1.0079
     226     1 O    8    2.936042   15.446799    4.078423      6.00      15.9994
     227     2 H    1    2.938990   14.484527    4.094744      1.00       1.0079
     228     2 H    1    3.643940   15.797581    3.440425      1.00       1.0079
     229     1 O    8    9.490372    6.962634    2.546001      6.00      15.9994
     230     2 H    1   10.276395    6.404861    2.326547      1.00       1.0079
     231     2 H    1    9.663757    7.826712    2.101025      1.00       1.0079
     232     1 O    8    5.809585    3.924091    4.087205      6.00      15.9994
     233     2 H    1    6.229465    3.905213    3.205878      1.00       1.0079
     234     2 H    1    4.840700    4.039297    3.884440      1.00       1.0079
     235     1 O    8   15.486587   10.048348    3.896466      6.00      15.9994
     236     2 H    1   16.143962   10.791827    4.057499      1.00       1.0079
     237     2 H    1   15.368418    9.658838    4.848979      1.00       1.0079
     238     1 O    8    7.257429   15.472352    9.459317      6.00      15.9994
     239     2 H    1    7.721035   15.039366   10.190621      1.00       1.0079
     240     2 H    1    6.656272   16.081336    9.959014      1.00       1.0079
     241     1 O    8    1.977199    3.532412   13.201652      6.00      15.9994
     242     2 H    1    2.282957    3.584113   12.257756      1.00       1.0079
     243     2 H    1    1.545239    4.447152   13.387382      1.00       1.0079
     244     1 O    8   14.026250    0.365098    1.275745      6.00      15.9994
     245     2 H    1   13.571985    1.099561    1.691302      1.00       1.0079
     246     2 H    1   14.617606    0.695860    0.560703      1.00       1.0079
     247     1 O    8    7.037872    7.156989   11.130250      6.00      15.9994
     248     2 H    1    6.560351    7.980267   10.800808      1.00       1.0079
     249     2 H    1    7.798056    7.373154   11.704428      1.00       1.0079
     250     1 O    8   12.366757    9.414711    9.863302      6.00      15.9994
     251     2 H    1   12.162542   10.262637    9.404983      1.00       1.0079
     252     2 H    1   11.496891    9.114459   10.117011      1.00       1.0079
     253     1 O    8   11.306221    2.341883   14.701909      6.00      15.9994
     254     2 H    1   11.777466    1.782523   13.962535      1.00       1.0079
     255     2 H    1   11.999493    2.855240   15.118363      1.00       1.0079
     256     1 O    8   11.868126    7.065038   13.537582      6.00      15.9994
     257     2 H    1   11.054988    6.505550   13.649907      1.00       1.0079
     258     2 H    1   12.260422    6.582670   12.757367      1.00       1.0079
     259     1 O    8    9.736711    9.575498    1.912237      6.00      15.9994
     260     2 H    1   10.190144    9.644350    2.808729      1.00       1.0079
     261     2 H    1    9.035980   10.295084    1.875700      1.00       1.0079
     262     1 O    8    8.116150   10.128433   13.804162      6.00      15.9994
     263     2 H    1    9.023631   10.356937   13.553316      1.00       1.0079
     264     2 H    1    8.091325    9.100380   13.916666      1.00       1.0079
     265     1 O    8    6.775386   13.634510    3.577564      6.00      15.9994
     266     2 H    1    7.302529   13.382893    2.797049      1.00       1.0079
     267     2 H    1    5.817108   13.426027    3.392257      1.00       1.0079
     268     1 O    8    2.344420   10.127509    6.864293      6.00      15.9994
     269     2 H    1    1.659715    9.499600    6.676757      1.00       1.0079
     270     2 H    1    2.461420   10.154833    7.861125      1.00       1.0079
     271     1 O    8    5.868315    2.077826   10.613745      6.00      15.9994
     272     2 H    1    5.863178    2.120870   11.592851      1.00       1.0079
     273     2 H    1    6.164548    2.986767   10.271809      1.00       1.0079
     274     1 O    8    5.962912   12.266581    7.483260      6.00      15.9994
     275     2 H    1    5.646032   13.138349    7.404194      1.00       1.0079
     276     2 H    1    6.814942   12.287099    7.014940      1.00       1.0079
     277     1 O    8    2.087860    7.726624   12.670229      6.00      15.9994
     278     2 H    1    2.393765    7.151035   11.839513      1.00       1.0079
     279     2 H    1    1.254824    7.223186   12.989832      1.00       1.0079
     280     1 O    8    7.634886    0.199371    0.965361      6.00      15.9994
     281     2 H    1    7.815781   -0.093639    0.039091      1.00       1.0079
     282     2 H    1    8.501845    0.387442    1.441509      1.00       1.0079
     283     1 O    8    5.187778    8.552280    5.167399      6.00      15.9994
     284     2 H    1    4.871643    9.390269    5.423426      1.00       1.0079
     285     2 H    1    6.047258    8.760500    4.830593      1.00       1.0079
     286     1 O    8   14.401350    3.755857   12.492878      6.00      15.9994
     287     2 H    1   13.856193    2.961923   12.490462      1.00       1.0079
     288     2 H    1   15.054913    3.775519   11.794701      1.00       1.0079
     289     1 O    8   10.386481    0.783668    2.049251      6.00      15.9994
     290     2 H    1   10.943722    1.203095    1.430967      1.00       1.0079
     291     2 H    1   10.564175   -0.169430    2.132989      1.00       1.0079
     292     1 O    8    4.429781    7.998064    9.152300      6.00      15.9994
     293     2 H    1    4.350169    7.639825    8.262688      1.00       1.0079
     294     2 H    1    4.993359    8.760724    9.067419      1.00       1.0079
     295     1 O    8    2.363627    6.491249    4.746177      6.00      15.9994
     296     2 H    1    1.613489    6.939757    5.194942      1.00       1.0079
     297     2 H    1    3.036355    6.134222    5.483744      1.00       1.0079
     298     1 O    8    4.802763   14.673810    8.131933      6.00      15.9994
     299     2 H    1    5.167645   15.570913    7.913497      1.00       1.0079
     300     2 H    1    5.357179   14.504092    8.905217      1.00       1.0079
     301     1 O    8   14.938162    1.218826    6.173886      6.00      15.9994
     302     2 H    1   13.982446    1.303014    6.377997      1.00       1.0079
     303     2 H    1   14.938231    0.809139    5.271980      1.00       1.0079
     304     1 O    8    5.975031   10.469427    9.559869      6.00      15.9994
     305     2 H    1    5.078870   10.451881    9.997070      1.00       1.0079
     306     2 H    1    5.816124   10.938636    8.678822      1.00       1.0079
     307     1 O    8   13.427619   14.478680   12.747442      6.00      15.9994
     308     2 H    1   13.177960   13.917859   13.442749      1.00       1.0079
     309     2 H    1   14.340956   14.344951   12.514041      1.00       1.0079
     310     1 O    8    4.468796    1.430474    6.053266      6.00      15.9994
     311     2 H    1    3.637508    0.898633    5.816772      1.00       1.0079
     312     2 H    1    5.211964    0.820386    5.766998      1.00       1.0079
     313     1 O    8    6.883607    0.053693    5.508937      6.00      15.9994
     314     2 H    1    7.439971    0.877544    5.368079      1.00       1.0079
     315     2 H    1    6.612493   -0.317990    4.613483      1.00       1.0079
     316     1 O    8   12.154031    1.330306    9.933649      6.00      15.9994
     317     2 H    1   12.474753    0.489827    9.498076      1.00       1.0079
     318     2 H    1   11.240354    1.481697    9.580101      1.00       1.0079
     319     1 O    8    6.778956   12.367622   11.311401      6.00      15.9994
     320     2 H    1    6.493301   11.607091   10.773669      1.00       1.0079
     321     2 H    1    6.246252   13.082793   10.964166      1.00       1.0079
     322     1 O    8    7.235353    7.239689    1.307504      6.00      15.9994
     323     2 H    1    8.050197    7.152793    1.879626      1.00       1.0079
     324     2 H    1    6.462394    7.345520    1.913348      1.00       1.0079
     325     1 O    8   10.207500   13.542176    2.595180      6.00      15.9994
     326     2 H    1   10.789929   12.860667    3.021235      1.00       1.0079
     327     2 H    1    9.580437   13.039638    2.067723      1.00       1.0079
     328     1 O    8    4.296509    3.281942    8.070607      6.00      15.9994
     329     2 H    1    3.348121    3.490495    8.146965      1.00       1.0079
     330     2 H    1    4.449585    2.693213    7.278776      1.00       1.0079
     331     1 O    8   10.874487    9.299921    4.366793      6.00      15.9994
     332     2 H    1   11.386510   10.144362    4.481886      1.00       1.0079
     333     2 H    1   11.180764    8.665193    5.009621      1.00       1.0079
     334     1 O    8   11.706706    1.611005    6.692773      6.00      15.9994
     335     2 H    1   10.958648    1.608208    7.340148      1.00       1.0079
     336     2 H    1   11.729638    0.780803    6.215227      1.00       1.0079
     337     1 O    8    1.413661   12.688230   12.177782      6.00      15.9994
     338     2 H    1    1.882861   11.992383   12.698894      1.00       1.0079
     339     2 H    1    2.084266   12.995037   11.513784      1.00       1.0079
     340     1 O    8    5.380242    0.670217    2.286146      6.00      15.9994
     341     2 H    1    6.065235    0.592862    1.580677      1.00       1.0079
     342     2 H    1    5.864665    1.031214    3.075108      1.00       1.0079
     343     1 O    8   11.327064   13.301542   11.019044      6.00      15.9994
     344     2 H    1   10.454007   13.709246   11.283375      1.00       1.0079
     345     2 H    1   11.983433   13.824317   11.525816      1.00       1.0079
     346     1 O    8    0.548248   12.290505    7.390229      6.00      15.9994
     347     2 H    1    1.033705   11.436478    7.088139      1.00       1.0079
     348     2 H    1   -0.434094   12.255484    7.264106      1.00       1.0079
     349     1 O    8    4.459067    7.744238   13.924012      6.00      15.9994
     350     2 H    1    3.646686    7.866554   13.335609      1.00       1.0079
     351     2 H    1    4.866328    6.956215   13.545587      1.00       1.0079
     352     1 O    8    0.686699    1.046058    9.191152      6.00      15.9994
     353     2 H    1    0.492876    1.257779    8.263399      1.00       1.0079
     354     2 H    1    1.674252    1.001511    9.249746      1.00       1.0079
     355     1 O    8   14.821197    7.847669    2.132154      6.00      15.9994
     356     2 H    1   14.996489    8.540370    2.769069      1.00       1.0079
     357     2 H    1   13.862110    7.927896    1.891853      1.00       1.0079
     358     1 O    8    3.663970   11.097168   11.019594      6.00      15.9994
     359     2 H    1    3.829312   12.009779   10.768620      1.00       1.0079
     360     2 H    1    4.110323   10.830519   11.875363      1.00       1.0079
     361     1 O    8    3.644294    3.161843   15.292794      6.00      15.9994
     362     2 H    1    3.323251    2.523923   16.015865      1.00       1.0079
     363     2 H    1    2.863932    3.180999   14.607553      1.00       1.0079
     364     1 O    8   11.902538   14.584941    5.731358      6.00      15.9994
     365     2 H    1   12.248616   14.072615    6.491115      1.00       1.0079
     366     2 H    1   10.945881   14.483042    5.888925      1.00       1.0079
     367     1 O    8    4.814427   12.707299   15.071304      6.00      15.9994
     368     2 H    1    4.550935   13.589350   14.783669      1.00       1.0079
     369     2 H    1    4.719754   11.970192   14.407859      1.00       1.0079
     370     1 O    8   13.113915   12.886062    7.363482      6.00      15.9994
     371     2 H    1   12.418363   12.189410    7.553502      1.00       1.0079
     372     2 H    1   13.353985   13.292311    8.248509      1.00       1.0079
     373     1 O    8    1.783184   14.453341   14.349711      6.00      15.9994
     374     2 H    1    1.258218   13.897132   14.951379      1.00       1.0079
     375     2 H    1    1.634856   14.198814   13.459769      1.00       1.0079



 PW_GRID: Information for grid number                                          1
 PW_GRID: Grid distributed over                                   128 processors
 PW_GRID: Real space group dimensions                                   128    1
 PW_GRID: the grid is blocked:                                                NO
 PW_GRID: Cutoff [a.u.]                                                    500.0
 PW_GRID: spherical cutoff:                                                   NO
 PW_GRID:   Bounds   1           -150     149                Points:         300
 PW_GRID:   Bounds   2           -150     149                Points:         300
 PW_GRID:   Bounds   3           -150     149                Points:         300
 PW_GRID: Volume element (a.u.^3)  0.9372E-03     Volume (a.u.^3)     25303.9229
 PW_GRID: Grid span                                                    FULLSPACE
 PW_GRID:   Distribution                         Average         Max         Min
 PW_GRID:   G-Vectors                           210937.5      211200      210900
 PW_GRID:   G-Rays                                 703.1         704         703
 PW_GRID:   Real Space Points                   210937.5      270000      180000

 PW_GRID: Information for grid number                                          2
 PW_GRID: Grid distributed over                                   128 processors
 PW_GRID: Real space group dimensions                                   128    1
 PW_GRID: the grid is blocked:                                                NO
 PW_GRID: Cutoff [a.u.]                                                    166.7
 PW_GRID: spherical cutoff:                                                   NO
 PW_GRID:   Bounds   1            -90      89                Points:         180
 PW_GRID:   Bounds   2            -90      89                Points:         180
 PW_GRID:   Bounds   3            -90      89                Points:         180
 PW_GRID: Volume element (a.u.^3)  0.4339E-02     Volume (a.u.^3)     25303.9229
 PW_GRID: Grid span                                                    FULLSPACE
 PW_GRID:   Distribution                         Average         Max         Min
 PW_GRID:   G-Vectors                            45562.5       45720       45360
 PW_GRID:   G-Rays                                 253.1         254         252
 PW_GRID:   Real Space Points                    45562.5       64800       32400

 PW_GRID: Information for grid number                                          3
 PW_GRID: Grid distributed over                                   128 processors
 PW_GRID: Real space group dimensions                                     8   16
 PW_GRID: the grid is blocked:                                                NO
 PW_GRID: Cutoff [a.u.]                                                     55.6
 PW_GRID: spherical cutoff:                                                   NO
 PW_GRID:   Bounds   1            -50      49                Points:         100
 PW_GRID:   Bounds   2            -50      49                Points:         100
 PW_GRID:   Bounds   3            -50      49                Points:         100
 PW_GRID: Volume element (a.u.^3)  0.2530E-01     Volume (a.u.^3)     25303.9229
 PW_GRID: Grid span                                                    FULLSPACE
 PW_GRID:   Distribution                         Average         Max         Min
 PW_GRID:   G-Vectors                             7812.5        7900        7700
 PW_GRID:   G-Rays                                  78.1          79          77
 PW_GRID:   Real Space Points                     7812.5        9100        7200

 PW_GRID: Information for grid number                                          4
 PW_GRID: Grid distributed over                                   128 processors
 PW_GRID: Real space group dimensions                                     8   16
 PW_GRID: the grid is blocked:                                                NO
 PW_GRID: Cutoff [a.u.]                                                     18.5
 PW_GRID: spherical cutoff:                                                   NO
 PW_GRID:   Bounds   1            -30      29                Points:          60
 PW_GRID:   Bounds   2            -30      29                Points:          60
 PW_GRID:   Bounds   3            -30      29                Points:          60
 PW_GRID: Volume element (a.u.^3)  0.1171         Volume (a.u.^3)     25303.9229
 PW_GRID: Grid span                                                    FULLSPACE
 PW_GRID:   Distribution                         Average         Max         Min
 PW_GRID:   G-Vectors                             1687.5        1740        1620
 PW_GRID:   G-Rays                                  28.1          29          27
 PW_GRID:   Real Space Points                     1687.5        1920        1260

 PW_GRID: Information for grid number                                          5
 PW_GRID: Grid distributed over                                   128 processors
 PW_GRID: Real space group dimensions                                     8   16
 PW_GRID: the grid is blocked:                                                NO
 PW_GRID: Cutoff [a.u.]                                                      6.2
 PW_GRID: spherical cutoff:                                                   NO
 PW_GRID:   Bounds   1            -18      17                Points:          36
 PW_GRID:   Bounds   2            -18      17                Points:          36
 PW_GRID:   Bounds   3            -18      17                Points:          36
 PW_GRID: Volume element (a.u.^3)  0.5424         Volume (a.u.^3)     25303.9229
 PW_GRID: Grid span                                                    FULLSPACE
 PW_GRID:   Distribution                         Average         Max         Min
 PW_GRID:   G-Vectors                              364.5         396         324
 PW_GRID:   G-Rays                                  10.1          11           9
 PW_GRID:   Real Space Points                      364.5         540         288

 RS_GRID: Information for grid number                                          1
 RS_GRID:   Bounds   1           -150     149                Points:         300
 RS_GRID:   Bounds   2           -150     149                Points:         300
 RS_GRID:   Bounds   3           -150     149                Points:         300
 RS_GRID: Real space distribution over                                  4 groups
 RS_GRID: Real space distribution along direction                              1
 RS_GRID: Border size                                                         20
 RS_GRID: Real space distribution over                                  4 groups
 RS_GRID: Real space distribution along direction                              2
 RS_GRID: Border size                                                         20
 RS_GRID: Real space distribution over                                  8 groups
 RS_GRID: Real space distribution along direction                              3
 RS_GRID: Border size                                                         20
 RS_GRID:   Distribution                         Average         Max         Min
 RS_GRID:   Planes                                 115.0         115         115
 RS_GRID:   Distribution                         Average         Max         Min
 RS_GRID:   Planes                                 115.0         115         115
 RS_GRID:   Distribution                         Average         Max         Min
 RS_GRID:   Planes                                  77.5          78          77

 RS_GRID: Information for grid number                                          2
 RS_GRID:   Bounds   1            -90      89                Points:         180
 RS_GRID:   Bounds   2            -90      89                Points:         180
 RS_GRID:   Bounds   3            -90      89                Points:         180
 RS_GRID: Real space distribution over                                  4 groups
 RS_GRID: Real space distribution along direction                              1
 RS_GRID: Border size                                                         18
 RS_GRID: Real space distribution over                                  4 groups
 RS_GRID: Real space distribution along direction                              2
 RS_GRID: Border size                                                         18
 RS_GRID: Real space distribution over                                  8 groups
 RS_GRID: Real space distribution along direction                              3
 RS_GRID: Border size                                                         18
 RS_GRID:   Distribution                         Average         Max         Min
 RS_GRID:   Planes                                  81.0          81          81
 RS_GRID:   Distribution                         Average         Max         Min
 RS_GRID:   Planes                                  81.0          81          81
 RS_GRID:   Distribution                         Average         Max         Min
 RS_GRID:   Planes                                  58.5          59          58

 RS_GRID: Information for grid number                                          3
 RS_GRID:   Bounds   1            -50      49                Points:         100
 RS_GRID:   Bounds   2            -50      49                Points:         100
 RS_GRID:   Bounds   3            -50      49                Points:         100
 RS_GRID: Real space fully replicated
 RS_GRID: Group size                                                           1

 RS_GRID: Information for grid number                                          4
 RS_GRID:   Bounds   1            -30      29                Points:          60
 RS_GRID:   Bounds   2            -30      29                Points:          60
 RS_GRID:   Bounds   3            -30      29                Points:          60
 RS_GRID: Real space fully replicated
 RS_GRID: Group size                                                           1

 RS_GRID: Information for grid number                                          5
 RS_GRID:   Bounds   1            -18      17                Points:          36
 RS_GRID:   Bounds   2            -18      17                Points:          36
[...]
     Hotelling iter   3 1.00000000   0.776E-01       0.012      192.222
     Hotelling iter   4 1.00000000   0.703E-02       0.012      195.976
     Hotelling iter   5 1.00000000   0.813E-04       0.012      193.021
     Hotelling iter   6 1.00000000   0.148E-07       0.011      197.856
     Hotelling iter   7 1.00000000   0.163E-14       0.012      192.410
 Maximum norm of dE/dT:   6.36380081003962194E-004
 Grad orthogonality error:   2.73375613048482764E-005
 ....updating step direction....
 ....applying preconditioner....
 ....special case 1....
 Dir orthogonality error:   1.22898071563976165E-005
 ....final beta....  0.14282341668363546     
 Step orthogonality error:   1.92840545714671338E-005
 ALMO SCF CG    13   -363.401792825662  -0.819E-04   0.638E-03   0.110E-04     0.86055     1.448
 VAR1: |B*X|:   0.12809894150709994     
 VAR1: |Q.X|:   0.12809894150709994     
 VAR1: |T0+Q.X|:   0.94552770140893394     

     Hotelling iter   1 1.00000000   0.958E+00       0.012      195.178
     Hotelling iter   2 1.00000000   0.335E+00       0.011      198.549
     Hotelling iter   3 1.00000000   0.776E-01       0.012      194.808
     Hotelling iter   4 1.00000000   0.703E-02       0.012      193.570
     Hotelling iter   5 1.00000000   0.813E-04       0.012      195.652
     Hotelling iter   6 1.00000000   0.148E-07       0.012      188.914
     Hotelling iter   7 1.00000000   0.169E-14       0.012      191.707
 Maximum norm of dE/dT:   3.72043250529284454E-004
 Grad orthogonality error:   1.63027460862287822E-005
 ....updating step direction....
 ....applying preconditioner....
 ....special case 1....
 Dir orthogonality error:   6.27163744978653279E-006
 ....final beta....  0.22138725767837436     
 Step orthogonality error:   1.01778218892913618E-005
 ALMO SCF CG    14   -363.401805019892  -0.122E-04   0.373E-03   0.260E-02     0.90358     1.442
 VAR1: |B*X|:   0.12801108505353301     
 VAR1: |Q.X|:   0.12801108505353301     
 VAR1: |T0+Q.X|:   0.94552005793333216     

     Hotelling iter   1 1.00000000   0.958E+00       0.012      196.042
     Hotelling iter   2 1.00000000   0.335E+00       0.012      196.912
     Hotelling iter   3 1.00000000   0.776E-01       0.012      195.038
     Hotelling iter   4 1.00000000   0.703E-02       0.012      193.920
     Hotelling iter   5 1.00000000   0.813E-04       0.011      199.804
     Hotelling iter   6 1.00000000   0.148E-07       0.012      192.641
     Hotelling iter   7 1.00000000   0.177E-14       0.012      193.516
 Maximum norm of dE/dT:   1.57349677072493328E-004
 Grad orthogonality error:   5.71788212021346868E-006
 Step orthogonality error:   1.02429599573389507E-005
 ALMO SCF LS    15   -363.401807889922   0.000E+00   0.157E-03  -0.209E-01     0.03752     1.143
 VAR1: |B*X|:   0.12800743700864542     
 VAR1: |Q.X|:   0.12800743700864542     
 VAR1: |T0+Q.X|:   0.94551974055491594     

     Hotelling iter   1 1.00000000   0.958E+00       0.011      202.715
     Hotelling iter   2 1.00000000   0.335E+00       0.012      188.880
     Hotelling iter   3 1.00000000   0.776E-01       0.012      194.059
     Hotelling iter   4 1.00000000   0.703E-02       0.012      197.478
     Hotelling iter   5 1.00000000   0.813E-04       0.012      194.151
     Hotelling iter   6 1.00000000   0.148E-07       0.012      192.827
     Hotelling iter   7 1.00000000   0.177E-14       0.012      191.959
 Maximum norm of dE/dT:   1.78515423461053516E-004
 Grad orthogonality error:   5.37554188968646879E-006
 ....updating step direction....
 ....applying preconditioner....
 ....special case 1....
 Dir orthogonality error:   2.44360603967121536E-006
 ....final beta....  0.18992123325835739     
 Step orthogonality error:   4.38947530963844195E-006
 ALMO SCF CG    16   -363.401807894491  -0.287E-05   0.179E-03  -0.111E-06     0.98815     1.446
 VAR1: |B*X|:   0.12804791966994292     
 VAR1: |Q.X|:   0.12804791966994292     
 VAR1: |T0+Q.X|:   0.94551787667075760     

     Hotelling iter   1 1.00000000   0.958E+00       0.012      195.045
     Hotelling iter   2 1.00000000   0.335E+00       0.011      199.831
     Hotelling iter   3 1.00000000   0.776E-01       0.012      197.216
     Hotelling iter   4 1.00000000   0.703E-02       0.012      195.761
     Hotelling iter   5 1.00000000   0.813E-04       0.011      197.729
     Hotelling iter   6 1.00000000   0.148E-07       0.012      194.206
     Hotelling iter   7 1.00000000   0.179E-14       0.011      200.041
 Maximum norm of dE/dT:   1.28360446345468721E-004
 Grad orthogonality error:   1.82300508073463460E-006
 Step orthogonality error:   4.40253982421033292E-006
 ALMO SCF LS    17   -363.401808409298   0.000E+00   0.129E-03   0.685E-01    -0.12189     1.141
 VAR1: |B*X|:   0.12804292607913406     
 VAR1: |Q.X|:   0.12804292607913406     
 VAR1: |T0+Q.X|:   0.94551810658337954     

     Hotelling iter   1 1.00000000   0.958E+00       0.012      195.355
     Hotelling iter   2 1.00000000   0.335E+00       0.012      195.930
     Hotelling iter   3 1.00000000   0.776E-01       0.012      190.542
     Hotelling iter   4 1.00000000   0.703E-02       0.012      192.192
     Hotelling iter   5 1.00000000   0.813E-04       0.012      196.299
     Hotelling iter   6 1.00000000   0.148E-07       0.012      193.338
     Hotelling iter   7 1.00000000   0.167E-14       0.012      197.482
 Maximum norm of dE/dT:   9.05069973913654249E-005
 Grad orthogonality error:   2.04498268731307682E-006
 ....updating step direction....
 ....applying preconditioner....
 ....special case 1....
 Dir orthogonality error:   9.50183172002029247E-007
 ....final beta....  0.15838268078497411     
 Step orthogonality error:   1.64721399389853077E-006
 ALMO SCF CG    18   -363.401808419696  -0.525E-06   0.908E-04   0.422E-07     0.90957     1.443
 VAR1: |B*X|:   0.12801864253994363     
 VAR1: |Q.X|:   0.12801864253994363     
 VAR1: |T0+Q.X|:   0.94551803618252406     

     Hotelling iter   1 1.00000000   0.958E+00       0.012      195.610
     Hotelling iter   2 1.00000000   0.335E+00       0.012      196.381
     Hotelling iter   3 1.00000000   0.776E-01       0.012      196.115
     Hotelling iter   4 1.00000000   0.703E-02       0.012      192.903
     Hotelling iter   5 1.00000000   0.813E-04       0.011      198.775
     Hotelling iter   6 1.00000000   0.148E-07       0.012      195.743
     Hotelling iter   7 1.00000000   0.161E-14       0.012      194.439
 Maximum norm of dE/dT:   4.01828686290102346E-005
 Grad orthogonality error:   9.63941607502246539E-007
 ....updating step direction....
 ....applying preconditioner....
 ....special case 1....
 Dir orthogonality error:   4.31748839754964021E-007
 ....final beta....  0.19557995135964690     
 Step orthogonality error:   7.13299739845428688E-007
 ALMO SCF CG    19   -363.401808507171  -0.875E-07   0.402E-04  -0.370E-02     0.95505     1.445
 VAR1: |B*X|:   0.12802053703014182     
 VAR1: |Q.X|:   0.12802053703014182     
 VAR1: |T0+Q.X|:   0.94551793621226643     

     Hotelling iter   1 1.00000000   0.958E+00       0.011      198.250
     Hotelling iter   2 1.00000000   0.335E+00       0.011      198.277
     Hotelling iter   3 1.00000000   0.776E-01       0.011      199.866
     Hotelling iter   4 1.00000000   0.703E-02       0.012      192.413
     Hotelling iter   5 1.00000000   0.813E-04       0.012      197.465
     Hotelling iter   6 1.00000000   0.148E-07       0.012      197.341
     Hotelling iter   7 1.00000000   0.163E-14       0.012      193.328
 Maximum norm of dE/dT:   2.18867822086739588E-005
 Grad orthogonality error:   4.05581567858514561E-007
 Step orthogonality error:   7.15035894802706665E-007
 ALMO SCF LS    20   -363.401808526194   0.000E+00   0.219E-04  -0.890E-02     0.01755     1.148
 VAR1: |B*X|:   0.12802057184649929     
 VAR1: |Q.X|:   0.12802057184649929     
 VAR1: |T0+Q.X|:   0.94551793437504383     

     Hotelling iter   1 1.00000000   0.958E+00       0.011      198.822
     Hotelling iter   2 1.00000000   0.335E+00       0.011      199.259
     Hotelling iter   3 1.00000000   0.776E-01       0.011      199.733
     Hotelling iter   4 1.00000000   0.703E-02       0.012      194.194
     Hotelling iter   5 1.00000000   0.813E-04       0.012      196.367
     Hotelling iter   6 1.00000000   0.148E-07       0.012      194.431
     Hotelling iter   7 1.00000000   0.166E-14       0.012      193.883
 Maximum norm of dE/dT:   2.30274780398135800E-005
 Grad orthogonality error:   3.95295968184140712E-007
 ....updating step direction....
 ....applying preconditioner....
 ....special case 1....
 Dir orthogonality error:   1.78016573788243896E-007
 ....final beta....  0.24505144985800301     
 Step orthogonality error:   3.53244975249433838E-007
 ALMO SCF CG    21   -363.401808526200  -0.190E-07   0.230E-04  -0.488E-08     1.02123     1.444
 VAR1: |B*X|:   0.12802309126301062     
 VAR1: |Q.X|:   0.12802309126301062     
 VAR1: |T0+Q.X|:   0.94551791502175009     

     Hotelling iter   1 1.00000000   0.958E+00       0.012      195.244
     Hotelling iter   2 1.00000000   0.335E+00       0.011      199.106
     Hotelling iter   3 1.00000000   0.776E-01       0.013      181.106
     Hotelling iter   4 1.00000000   0.703E-02       0.012      187.586
     Hotelling iter   5 1.00000000   0.813E-04       0.012      192.772
     Hotelling iter   6 1.00000000   0.148E-07       0.012      194.962
     Hotelling iter   7 1.00000000   0.166E-14       0.011      198.811
 Maximum norm of dE/dT:   1.63325145606752972E-005
 Grad orthogonality error:   1.63705722750099921E-007
 Step orthogonality error:   3.53779547737639310E-007
 ALMO SCF LS    22   -363.401808530092   0.000E+00   0.163E-04   0.763E-01    -0.14682     1.142
 VAR1: |B*X|:   0.12802272904673620     
 VAR1: |Q.X|:   0.12802272904673620     
 VAR1: |T0+Q.X|:   0.94551791780417138     

     Hotelling iter   1 1.00000000   0.958E+00       0.012      196.093
     Hotelling iter   2 1.00000000   0.335E+00       0.011      197.784
     Hotelling iter   3 1.00000000   0.776E-01       0.012      195.477
     Hotelling iter   4 1.00000000   0.703E-02       0.011      197.795
     Hotelling iter   5 1.00000000   0.813E-04       0.011      199.255
     Hotelling iter   6 1.00000000   0.148E-07       0.012      194.125
     Hotelling iter   7 1.00000000   0.167E-14       0.012      196.672
 Maximum norm of dE/dT:   1.06737299123418287E-005
 Grad orthogonality error:   1.58170330074261416E-007
 ....updating step direction....
 ....applying preconditioner....
 ....special case 1....
 Dir orthogonality error:   7.39328728671458537E-008
 ....final beta....  0.19075555330272354     
 Step orthogonality error:   1.28635253260706714E-007
 ALMO SCF CG    23   -363.401808530204  -0.400E-08   0.107E-04   0.261E-07     0.91813     1.445
 VAR1: |B*X|:   0.12802355060074763     
 VAR1: |Q.X|:   0.12802355060074763     
 VAR1: |T0+Q.X|:   0.94551798074867577     

     Hotelling iter   1 1.00000000   0.958E+00       0.012      196.151
     Hotelling iter   2 1.00000000   0.335E+00       0.012      197.248
     Hotelling iter   3 1.00000000   0.776E-01       0.012      195.397
     Hotelling iter   4 1.00000000   0.703E-02       0.012      192.930
     Hotelling iter   5 1.00000000   0.813E-04       0.012      197.351
     Hotelling iter   6 1.00000000   0.148E-07       0.012      193.516
     Hotelling iter   7 1.00000000   0.162E-14       0.012      194.051
 Maximum norm of dE/dT:   4.82976940697999943E-006
 Grad orthogonality error:   7.96838998151900058E-008
 ALMO SCF CG    24   -363.401808530986  -0.400E-08   0.483E-05   0.261E-07     0.91813     0.975
 _ENERGY-0:   -2151.5031725277740     
 _ENERGY-D:   -1.4456644178672764     
 _ENERGY-F:   -2152.9488369456412     

 DECOMPOSITION OF THE DELOCALIZATION ENERGY

 ENERGY| Total FORCE_EVAL ( QS ) energy (a.u.):            -2151.503172569983690


 -------------------------------------------------------------------------------
 ----                             MULTIGRID INFO                            ----
 -------------------------------------------------------------------------------
 count for grid        1:        1664415          cutoff [a.u.]          500.00
 count for grid        2:        1514903          cutoff [a.u.]          166.67
 count for grid        3:        1403543          cutoff [a.u.]           55.56
 count for grid        4:        1380975          cutoff [a.u.]           18.52
 count for grid        5:        2634708          cutoff [a.u.]            6.17
 total gridlevel count  :        8598544

 -------------------------------------------------------------------------------
 -                                                                             -
 -                         MESSAGE PASSING PERFORMANCE                         -
 -                                                                             -
 -------------------------------------------------------------------------------

 ROUTINE             CALLS  TOT TIME [s]  AVE VOLUME [Bytes]  PERFORMANCE [MB/s]
 MP_Group                5         0.000
 MP_Bcast               50         0.012            4195123.            17452.41
 MP_Allreduce          221         1.206               7499.                1.37
 MP_Gather               4         0.005               3584.                2.63
 MP_Sync                 5         0.001
 MP_Alltoall           777        25.690            7156888.              216.46
 MP_ISendRecv        21336         0.058              30827.            11428.49
 MP_Wait             26082         6.133
 MP_ISend             4294         0.242             172490.             3055.20
 MP_IRecv             4294         0.158             172364.             4681.02
 -------------------------------------------------------------------------------


 -------------------------------------------------------------------------------
 -                                                                             -
 -                           R E F E R E N C E S                               -
 -                                                                             -
 -------------------------------------------------------------------------------
 
 CP2K version 2.2.268 (Development Version), the CP2K developers group (2011).
 CP2K is freely available from http://cp2k.berlios.de/ .

 VandeVondele, J; Hutter, J. 
 JOURNAL OF CHEMICAL PHYSICS, 127 (11), 114105 (2007). 
 Gaussian basis sets for accurate calculations on molecular systems in
 gas and condensed phases.
 http://dx.doi.org/10.1063/1.2770708


 Krack, M. 
 THEORETICAL CHEMISTRY ACCOUNTS, 114 (1-3), 145-152 (2005). 
 Pseudopotentials for H to Kr optimized for gradient-corrected
 exchange-correlation functionals.
 http://dx.doi.org/10.1007/s00214-005-0655-y


 VandeVondele, J; Krack, M; Mohamed, F; Parrinello, M; Chassaing, T;
 Hutter, J. COMPUTER PHYSICS COMMUNICATIONS, 167 (2), 103-128 (2005). 
 QUICKSTEP: Fast and accurate density functional calculations using a
 mixed Gaussian and plane waves approach.
 http://dx.doi.org/10.1016/j.cpc.2004.12.014


 Frigo, M; Johnson, SG. 
 PROCEEDINGS OF THE IEEE, 93 (2), 216-231 (2005). 
 The design and implementation of FFTW3.
 http://dx.doi.org/10.1109/JPROC.2004.840301


 Hartwigsen, C; Goedecker, S; Hutter, J. 
 PHYSICAL REVIEW B, 58 (7), 3641-3662 (1998). 
 Relativistic separable dual-space Gaussian pseudopotentials from H to Rn.
 http://dx.doi.org/10.1103/PhysRevB.58.3641


 Lippert, G; Hutter, J; Parrinello, M. 
 MOLECULAR PHYSICS, 92 (3), 477-487 (1997). 
 A hybrid Gaussian and plane wave density functional scheme.
 http://dx.doi.org/10.1080/002689797170220


 Goedecker, S; Teter, M; Hutter, J. 
 PHYSICAL REVIEW B, 54 (3), 1703-1710 (1996). 
 Separable dual-space Gaussian pseudopotentials.
 http://dx.doi.org/10.1103/PhysRevB.54.1703


 BECKE, AD. PHYSICAL REVIEW A, 38 (6), 3098-3100 (1988). 
 DENSITY-FUNCTIONAL EXCHANGE-ENERGY APPROXIMATION WITH CORRECT
 ASYMPTOTIC-BEHAVIOR.
 http://dx.doi.org/10.1103/PhysRevA.38.3098


 LEE, CT; YANG, WT; PARR, RG. 
 PHYSICAL REVIEW B, 37 (2), 785-789 (1988). 
 DEVELOPMENT OF THE COLLE-SALVETTI CORRELATION-ENERGY FORMULA INTO A
 FUNCTIONAL OF THE ELECTRON-DENSITY.
 http://dx.doi.org/10.1103/PhysRevB.37.785


 -------------------------------------------------------------------------------
 -                                                                             -
 -                                T I M I N G                                  -
 -                                                                             -
 -------------------------------------------------------------------------------
 SUBROUTINE                       CALLS  ASD         SELF TIME        TOTAL TIME
                                              AVERAGE  MAXIMUM  AVERAGE  MAXIMUM
 CP2K                                 1  1.0    0.032    0.039  360.485  360.548
 qs_energies_scf                      1  2.0    0.000    0.001  359.842  359.915
 almo_entry_scf                       1  3.0    0.000    0.000  355.633  355.707
 almo_scf_main                        1  4.0    0.000    0.000  297.004  297.059
 almo_scf_dm_to_ks                   27  6.0    0.000    0.000  290.468  290.751
 almo_scf_main_block_diagonal         1  5.0    0.000    0.002  238.344  238.389
 qs_ks_update_qs_env                 28  7.0    0.001    0.001  175.612  175.888
 qs_ks_build_kohn_sham_matrix        28  8.0    0.035    0.046  175.577  175.853
 sum_up_and_integrate                28  9.0    0.174    0.219  141.423  141.693
 integrate_v_rspace                  28 10.0  124.976  126.716  141.249  141.515
 qs_rho_update_rho                   28  7.0    0.000    0.000  124.261  124.289
 calculate_rho_elec                  28  8.0  102.670  105.782  124.261  124.289
 almo_scf_main_quenched_almos         2  5.0    0.036    0.053  105.621  105.653
 cp_dbcsr_multiply_d               1972  7.4    0.010    0.010   47.379   47.660
 almo_post_scf                        1  4.0    0.001    0.001   47.002   47.025
 fft_wrap_pw1pw2                    533 11.0    0.016    0.020   39.036   39.577
 fft_wrap_pw1pw2_500                309 11.9    2.343    2.891   37.035   37.544
 fft3d_ps                           533 13.0   10.529   12.557   32.703   33.467
 qs_vxc_create                       28  9.0    0.002    0.002   29.524   29.667
 xc_vxc_pw_create                    28 10.0    0.484    0.572   29.522   29.665
 cp_dbcsr_mult_NS_NR                289  7.6   26.182   26.967   26.189   26.974
 density_rs2pw                       28  9.0    0.715    1.049   16.221   18.543
 xc_rho_set_and_dset_create          28 11.0    1.857    2.364   15.118   15.938
 rs_pw_transfer                     281 10.9    0.009    0.028   13.416   15.913
 almo_scf_t_to_p                     52  6.4    0.001    0.001   14.053   14.355
 x_to_yz                            196 14.1   11.648   12.005   11.648   12.005
 almo_scf_init                        1  4.0    0.000    0.000   11.627   11.639
 distribute_matrix                   56 10.0    8.576   11.384    8.799   11.457
 yz_to_x                            169 13.8   10.098   11.383   10.098   11.383
 almo_scf_init_qs                     1  5.0    0.180    0.181   11.322   11.334
 potential_pw2rs                     28 11.0    0.018    0.020   10.600   10.638
 -------------------------------------------------------------------------------

  **** **** ******  **  PROGRAM ENDED AT                 2012-06-12 22:04:36.300
 ***** ** ***  *** **   PROGRAM RAN ON                                  nid00029
 **    ****   ******    PROGRAM RAN BY                                  root ;-)
 ***** **    ** ** **   PROGRAM PROCESS ID                                 19332
  **** **  *******  **  PROGRAM STOPPED IN /scratch/weisshorn/rustamr/e298-1.304
                                           388
Application 983413 resources: utime ~44606s, stime ~1608s
